/*--------------------------------*- C++ -*----------------------------------*\
| =========                 |                                                 |
| \\      /  F ield         | OpenFOAM: The Open Source CFD Toolbox           |
|  \\    /   O peration     | Version:  4.1                                   |
|   \\  /    A nd           | Web:      www.OpenFOAM.org                      |
|    \\/     M anipulation  |                                                 |
\*---------------------------------------------------------------------------*/
FoamFile
{
    version     2.0;
    format      ascii;
    class       surfaceScalarField;
    location    "12";
    object      phi;
}
// * * * * * * * * * * * * * * * * * * * * * * * * * * * * * * * * * * * * * //

dimensions      [0 3 -1 0 0 0 0];

internalField   nonuniform List<scalar> 
2360
(
3061.12
2695.74
365.373
2695.74
2695.73
2541.53
154.194
2541.52
2541.51
2541.5
2886.97
-345.479
2886.96
2886.95
3685.53
-798.577
3685.51
3685.51
4753.48
-1067.98
4753.45
4753.43
7068.61
-2315.25
7068.53
7068.47
7618.99
8584.65
9564.52
10518.1
11469.9
12428.3
3068.62
10353.9
4089.12
5114.81
6144.45
7176.74
8210.74
9245.33
10280.4
11314.7
12348.5
13381.1
14437.3
15524.3
16215.6
-105.029
16320.6
-104.972
-104.996
-104.973
1304.18
-1409.19
1304.16
1304.11
1304.11
2051.23
-747.156
2051.22
2051.19
-4610.63
6661.83
-4610.65
-4610.65
-4610.67
-16958.4
12347.8
-16958.5
-16958.5
-16958.5
-30264.4
13305.9
-29880.7
-29399.1
-28876.9
-28305.1
-27677.7
-26992.5
-26247.4
-25438.9
-24562.8
-23615.6
-22594.9
-21498.3
-20321.4
-22365.7
3322.42
-20991.3
-19469.6
-17785.4
-16023.2
-14546.7
-14086.6
-14086.6
-14086.6
-9916.63
-4169.97
-9916.64
-9916.63
-7875.98
-2040.66
-7875.97
-7875.97
-6743.21
-1132.75
-6743.21
-6743.21
-6174.88
-568.325
-6174.88
-6174.88
-6174.88
-6064.11
-110.771
-6064.11
-6064.11
-6229.47
165.36
-68751.7
-205096
56181.6
-20874.6
-44330.3
184543
-28796.7
-8760.49
7120.23
-10970.5
-470.299
9793.27
-8320.12
1386.95
-4126.19
-10088.3
871.335
-14780.5
4408
-12826.1
6703.35
-6181.15
5502.75
4217.27
1665.71
9794.52
-373.413
8430.53
-443.411
5769.69
-297.401
4705.97
-27.8876
3861.35
-62.0273
4312.54
4766.06
-36875.3
-139311
-37357.9
-20392
-17304
164489
-17860.2
-8204.26
1223.79
-30054.5
2061.65
8955.4
-1370.29
4818.89
906.114
-12364.7
1248.75
-15123.2
1156.37
-12733.8
3175.2
-8199.98
4765.81
2626.66
2939.64
11620.7
117.32
11252.9
-914.961
6801.97
-612.741
4403.75
-102.628
3351.23
-217.235
4427.14
4438.06
10442.8
-150922
-5091.57
-4857.56
22601.3
136796
16336.2
-1939.19
3015.63
-16733.9
1190.54
10780.5
-191.312
6200.75
-184.144
-12371.8
-686.617
-14620.7
-119.883
-13300.5
1976.92
-10296.8
2997.15
1606.43
2829.29
11788.6
759.575
13322.6
-775.27
8336.82
-701.93
4330.41
-86.1539
2735.46
-41.4791
4382.47
3828.24
-27831.8
-113691
-26961.7
-5727.69
-5652.53
115487
-8315.59
723.869
-3396.11
-21653.4
-129.583
7513.96
862.454
5208.71
-319.912
-11189.5
-2198.45
-12742.1
-2278.78
-13220.2
-446.069
-12129.5
1135.1
25.2585
1700.79
11222.9
757.787
14265.6
-647.028
9741.63
-817.129
4500.51
-20.6469
1938.98
325.401
4036.41
3020.87
-7597.44
-103030
-16227.1
2901.99
-6970.35
106230
-10817.1
4570.64
-7040.56
-25430
-1933.4
2406.79
243.109
3032.21
-2054.99
-8891.36
-4474.42
-10322.7
-4804.55
-12890
-3307.39
-13626.7
-610.721
-2671.41
301.406
10310.7
173.608
14393.4
-646.871
10562.1
-893.955
4747.59
55.7433
989.278
901.226
3190.92
1881.44
-18887.8
-80072.9
-20327.9
4342.03
-6766.92
92668.9
-9173.95
6977.67
-8635.61
-25968.3
-2652.74
-3576.08
-369.162
748.633
-3999.8
-5260.73
-6738.82
-7583.69
-7589.29
-12039.6
-6395.11
-14820.8
-2876.11
-6190.41
-1214.29
8648.92
-769.485
13948.6
-777.171
10569.8
-892.122
4862.55
-73.0346
170.185
2054.8
1063.07
-233.762
-17916.6
-60790.9
-17709.8
4135.22
-617.656
75576.8
-3847.18
10207.2
-5717.68
-24097.8
-1173.09
-8120.67
-1614.65
1190.19
-5847.01
-1028.37
-8791.16
-4639.54
-9941.98
-10888.7
-9031.54
-15731.3
-5391.72
-9830.24
-2893.29
6150.49
-1856.26
12911.5
-1114.37
9827.92
-745.614
4493.79
419.421
-994.85
2678.3
-1195.82
5766.95
-20923.2
-39617.6
-18530.1
1742.1
4780.21
52266.5
5522.03
9465.37
-779.862
-17795.9
102.525
-9003.05
-1834.04
3126.75
-6418.26
3555.85
-9947.66
-1110.13
-11237.5
-9598.92
-10859.6
-16109.2
-7982.37
-12707.4
-4769.64
2937.76
-3043.26
11185.2
-1756.96
8541.61
-776.551
3513.39
-1506.28
-265.115
-5752.82
3050.71
13320
-21667.6
-20060.2
-18421.3
-1504.18
7354.43
26490.8
11769
5050.83
3846.17
-9873.12
958.268
-6115.16
-1286.46
5371.48
-6026.52
8295.91
-9993.22
2856.57
-11129.1
-8463.07
-11406
-15832.2
-10222.4
-13891
-6719.52
-565.161
-3672.7
8138.34
-1606.05
6474.97
-1524.82
3432.15
-5603.38
3813.45
-10862.6
8309.96
14805.2
-21791.9
-2912.27
-18215.2
-5080.84
9046.69
-771.165
13632.4
465.133
6785.8
-3026.53
1485.03
-814.39
-1623.61
8480.12
-5937.42
12609.7
-9311.61
6230.76
-10061.3
-7713.4
-11126.7
-14766.8
-12200.9
-12816.8
-9648.47
-3117.57
-5659.76
4149.64
-3887.1
4702.31
-5310.6
4855.66
-8800.4
7303.25
-10238.6
9748.14
11228.5
-22751.2
14734.3
-18969.4
-8862.61
8083.81
-27824.4
13182.2
-4633.31
7104.59
3051.12
270.12
6020.08
-3472.64
12222.9
-6564.31
15701.4
-8547.45
8213.9
-9033.18
-7227.67
-11058.7
-12741.3
-13976.4
-9899.17
-13427.8
-3666.13
-10807.2
1529.01
-9736.88
3631.99
-10352.4
5471.18
-10784.2
7735.07
-7959.31
6923.23
2522.01
-23139.6
35522.7
-19776.7
-12225.5
6194.62
-53795.8
7966.49
-6405.18
934.287
10083.3
-3677.98
10632.4
-6138.39
14683.3
-7636.29
17199.3
-8117.51
8695.12
-8570.9
-6774.29
-11629.1
-9683.02
-15869.3
-5659.04
-16419.6
-3115.75
-14071.7
-818.916
-12198.6
1758.84
-11498
4770.59
-10461.9
6699.01
-7193.08
3654.41
-6080.26
-22234.3
57957
-20116.4
-14343.4
4853.3
-78765.5
-131.297
-1420.58
-5792.19
15744.2
-7155.17
11995.3
-8728.5
16256.6
-8752.12
17222.9
-7731.6
7674.6
-7748.58
-6757.31
-11031.4
-6400.22
-16419.7
-270.692
-19177.9
-357.571
-19217.9
-778.916
-18438.7
979.669
-17935.8
4267.66
-18070.6
6833.85
-17845.6
3429.41
-7605.27
-19997.6
79355.4
-20459.7
-13881.3
-1819.26
-97405.9
-4739.69
1499.85
-9386.99
20391.5
-9353.22
11961.6
-10272.4
17175.8
-9022.27
15972.7
-6630.19
5282.52
-5385.55
-8001.95
-6092.69
-5693.08
-8261.52
1898.13
-8635.56
16.473
-9287.03
-127.442
-11738.7
3431.33
-13299.3
5828.32
-11995.2
5529.74
-8735.09
169.277
-5986.43
-18164.7
101951
-20998.4
-11047.6
-7508.64
-110896
-8486.9
2478.12
-10362.8
22267.4
-9959.48
11558.2
-10077.7
17294
-7850.34
13745.4
-4645.26
2077.43
-2691.22
-9955.98
-1939.23
-6445.07
-3263.21
3222.11
-4056.44
809.707
-4411.53
227.644
-5706.01
4725.81
-6513.69
6636
-3709.65
2725.7
629.586
-4169.95
-7672.1
-10926.7
115777
-19425
-2549.26
-9073.28
-121247
-11303.5
4708.38
-9638.87
20602.8
-8723.91
10643.3
-8108.01
16678.1
-5190.61
10828
-2020.83
-1092.34
-142.703
-11834.1
1279.36
-7867.13
505.451
3996.02
-2047.84
3363
-2573.46
753.265
-2174.69
4327.05
-1726.26
6187.57
415.403
584.051
1780.09
-5534.64
-6959.98
-26262.9
151817
-30686.5
1874.36
-8037.04
-143897
-9711.69
6383.02
-6837.28
17728.4
-7051.09
10857.1
-5661.64
15288.7
-2470.82
7637.17
418.073
-3981.24
1755.35
-13171.4
2144.99
-8256.77
2106.59
4034.42
-45.3099
5514.91
-1478.15
2186.11
-748.676
3597.57
726.341
4712.55
1670.24
-359.846
1439.18
-5303.59
-6319.38
15449.5
135434
-4245.89
21569.7
19589.1
-167732
13166.4
12805.7
132.972
30761.8
-3598.08
14588.1
-2687.37
14378
534.37
4415.44
2731.62
-6178.48
2131.03
-12570.8
960.601
-7086.35
1595.97
3399.06
1440.06
5670.81
267.104
3359.07
284.297
3580.38
1439.65
3557.2
1860.61
-780.804
1069.58
-4512.56
-5595.28
-32617.1
198509
-37490.2
26442.8
-17037.6
-188184
-14437.7
10205.8
1786.02
14538.1
-1814.98
18189.1
-1540.01
14103
3201.58
-326.151
4447.29
-7424.19
793.046
-8916.55
-1530.1
-4763.2
323.372
1545.59
1770.59
4223.59
1120.63
4009.04
724.689
3976.32
1291.49
2990.4
1611.08
-1100.39
782.847
-3684.33
-4658.24
-74465
54756.2
-46469
-32167.7
-8330.27
-7144.59
7619.07
9241.06
4474.52
-419.336
-2485.25
-1395.32
775.186
1679.19
2307.67
2998.07
2141.34
648.274
17.3148
-567.94
116.134
-1064.6
188.153
-1051.91
248.79
-1014.27
307.33
-1010.39
359.936
-1011.07
370.991
-1005.23
353.091
-1002.28
330.729
-1003.07
305.256
-1003.96
278.266
-1005.16
250.778
-1006.36
223.566
-1007.32
197.118
-1008.48
171.654
-1008.85
147.334
-1009.43
124.549
-1009.8
109.343
-1041.05
90.6764
-1068.29
-600.635
26.8102
-594.755
17.1861
-1054.99
-4.81034
-1029.92
-19.8329
-999.252
-30.3444
-999.876
-40.441
-1000.97
-41.4192
-1004.25
-38.4882
-1005.22
-35.4442
-1006.11
-32.7773
-1006.63
-30.6491
-1007.29
-29.0988
-1007.91
-27.9945
-1008.42
-27.241
-1009.23
-26.6062
-1009.48
-25.9227
-1010.11
-25.0287
-1010.69
-26.3951
-1039.68
-25.0569
-1069.63
-625.692
28.3909
-623.148
34.5752
-1061.17
34.6575
-1030
36.5168
-1001.11
37.5792
-1000.94
37.7488
-1001.15
34.8322
-1001.34
30.8796
-1001.27
26.6112
-1001.84
22.1187
-1002.14
17.5043
-1002.68
12.7692
-1003.18
7.97369
-1003.62
3.08712
-1004.35
-1.77621
-1004.62
-6.60655
-1005.28
-11.8427
-1005.45
-19.9386
-1031.58
-20.8727
-1068.69
-646.565
22.2366
-645.383
22.0821
-1061.02
15.2772
-1023.19
12.1432
-997.979
9.91422
-998.709
7.79456
-999.026
6.30692
-999.847
4.97912
-999.938
3.60427
-1000.46
2.14623
-1000.68
0.577698
-1001.11
-1.1345
-1001.46
-2.96912
-1001.79
-4.98835
-1002.33
-7.12181
-1002.49
-9.43871
-1002.96
-11.9786
-1002.91
-17.2481
-1026.31
-18.8028
-1067.14
-665.367
21.6721
-667.055
21.3637
-1060.71
16.8976
-1018.73
14.9432
-996.024
13.0692
-996.835
11.0921
-997.048
8.90531
-997.66
6.68412
-997.716
4.43178
-998.212
2.17118
-998.422
-0.097557
-998.836
-2.38731
-999.173
-4.66705
-999.506
-6.98659
-1000.01
-9.27439
-1000.2
-11.5634
-1000.67
-14.0126
-1000.46
-18.9791
-1021.35
-20.3576
-1065.76
-685.725
21.155
-688.209
19.9226
-1059.47
15.0563
-1013.86
12.9115
-993.878
10.9675
-994.889
8.98877
-995.068
7.00976
-995.68
5.04252
-995.748
3.04969
-996.218
1.04284
-996.414
-0.983042
-996.809
-3.04257
-997.112
-5.10916
-997.439
-7.23152
-997.883
-9.33963
-998.089
-11.4735
-998.538
-13.7088
-998.227
-18.5139
-1016.54
-20.5034
-1063.77
-706.228
20.999
-709.207
19.1068
-1057.58
14.5939
-1009.35
12.5981
-991.882
10.6926
-992.983
8.74862
-993.123
6.76132
-993.691
4.78356
-993.769
2.7848
-994.219
0.784245
-994.413
-1.22427
-994.8
-3.24979
-995.086
-5.26692
-995.421
-7.32148
-995.828
-9.3459
-996.064
-11.3837
-996.499
-13.4635
-996.146
-17.9663
-1012.04
-20.497
-1061.24
-726.725
20.849
-730.055
18.3057
-1055.04
13.9815
-1005.02
12.0836
-989.983
10.2341
-991.133
8.35645
-991.245
6.44656
-991.781
4.54766
-991.869
2.62707
-992.297
0.704889
-992.49
-1.22701
-992.867
-3.17542
-993.137
-5.11719
-993.478
-7.09564
-993.849
-9.04448
-994.114
-11.013
-994.53
-12.9777
-994.181
-17.241
-1007.77
-20.3706
-1058.11
-747.096
20.7164
-750.77
17.5304
-1051.85
13.4584
-1000.95
11.6634
-988.187
9.87163
-989.34
8.05775
-989.43
6.21049
-989.933
4.37494
-990.033
2.51753
-990.439
0.660958
-990.632
-1.2058
-991
-3.08569
-991.256
-4.95916
-991.604
-6.86611
-991.942
-8.74317
-992.237
-10.6447
-992.628
-12.5048
-992.321
-16.5116
-1003.77
-20.2364
-1054.38
-767.332
20.5707
-771.341
16.7523
-1048.03
12.9329
-997.129
11.2347
-986.489
9.50378
-987.609
7.75781
-987.684
5.97954
-988.154
4.21329
-988.266
2.42442
-988.65
0.637726
-988.845
-1.16088
-989.201
-2.97049
-989.446
-4.77578
-989.799
-6.61247
-990.105
-8.4206
-990.428
-10.2589
-990.79
-12.026
-990.553
-15.7805
-1000.01
-20.1016
-1050.06
-787.434
20.4274
-791.768
15.9808
-1043.59
12.4251
-993.573
10.8158
-984.879
9.14583
-985.939
7.46671
-986.004
5.75595
-986.443
4.05734
-986.567
2.33549
-986.928
0.617289
-987.127
-1.11471
-987.469
-2.85501
-987.706
-4.59361
-988.06
-6.36078
-988.337
-8.10134
-988.687
-9.87678
-989.014
-11.5585
-988.871
-15.0569
-996.514
-19.9728
-1045.14
-807.407
20.2845
-812.052
15.2142
-1038.51
11.9268
-990.285
10.3998
-983.352
8.79159
-984.33
7.17941
-984.392
5.53637
-984.8
3.9054
-984.936
2.25061
-985.273
0.6008
-985.477
-1.06489
-985.803
-2.736
-986.034
-4.40879
-986.387
-6.1066
-986.639
-7.78073
-987.013
-9.49334
-987.301
-11.0963
-987.268
-14.3369
-993.273
-19.8465
-1039.63
-827.253
20.1474
-832.199
14.4554
-1032.82
11.4401
-987.27
9.98933
-981.901
8.44388
-982.785
6.89863
-982.847
5.32318
-983.224
3.75955
-983.372
2.17161
-983.684
0.589651
-983.894
-1.01021
-984.203
-2.61241
-984.432
-4.22047
-984.778
-5.84879
-985.011
-7.45776
-985.404
-9.10694
-985.652
-10.6372
-985.738
-13.6188
-990.291
-19.7205
-1033.53
-846.974
20.0192
-852.218
13.7043
-1026.51
10.9638
-984.529
9.58458
-980.521
8.10383
-981.304
6.62662
-981.369
5.11938
-981.717
3.62366
-981.877
2.10332
-982.164
0.589117
-982.38
-0.944548
-982.669
-2.47776
-982.899
-4.02196
-983.234
-5.58024
-983.452
-7.12573
-983.858
-8.71073
-984.067
-10.1743
-984.274
-12.8981
-987.567
-19.5893
-1026.84
-866.563
19.91
-872.128
12.9649
-1019.56
10.5011
-982.065
9.18967
-979.209
7.77537
-979.889
6.36759
-979.961
4.92852
-980.277
3.50068
-980.449
2.04839
-980.711
0.601043
-980.933
-0.866048
-981.202
-2.33056
-981.434
-3.81159
-981.753
-5.29837
-981.965
-6.78224
-982.374
-8.30081
-982.548
-9.70273
-982.872
-12.1709
-985.099
-19.4454
-1019.57
-886.008
19.8438
-891.971
12.2552
-1011.97
10.0748
-979.884
8.83374
-977.968
7.4903
-978.546
6.1563
-978.627
4.78593
-978.907
3.42449
-979.087
2.03835
-979.325
0.652706
-979.547
-0.752273
-979.796
-2.15496
-980.031
-3.57934
-980.328
-4.99914
-980.545
-6.42996
-980.943
-7.88178
-981.096
-9.22934
-981.524
-11.4469
-982.881
-19.2844
-1011.73
-905.293
19.8669
-911.838
11.6134
-1003.72
9.74457
-978.015
8.60136
-976.825
7.34993
-977.294
6.11183
-977.389
4.82799
-977.623
3.545
-977.804
2.2348
-978.015
0.914611
-978.227
-0.427825
-978.454
-1.77609
-978.683
-3.15392
-978.95
-4.52395
-979.175
-5.92852
-979.539
-7.33232
-979.692
-8.66667
-980.19
-10.6715
-980.876
-19.0369
-1003.36
-924.33
20.0761
-931.914
11.1015
-994.745
9.58942
-976.503
8.60444
-975.84
7.48287
-976.173
6.37123
-976.277
5.20262
-976.454
4.01745
-976.619
2.79971
-976.797
1.55844
-976.985
0.289931
-977.185
-0.996435
-977.396
-2.31762
-977.629
-3.63873
-977.854
-5.01973
-978.157
-6.37882
-978.333
-7.75846
-978.81
-9.59824
-979.037
-18.4199
-994.542
-942.749
20.7986
-952.713
11.0693
-985.016
9.96454
-975.398
9.25152
-975.127
8.35722
-975.278
7.43199
-975.352
6.4238
-975.446
5.35242
-975.547
4.21333
-975.658
3.00921
-975.781
1.74195
-975.918
0.417383
-976.072
-0.966866
-976.245
-2.38446
-976.436
-3.8737
-976.668
-5.32748
-976.879
-6.87806
-977.26
-8.5307
-977.384
-17.5625
-985.51
-960.312
22.2872
12.2712
11.8728
11.746
11.4678
11.116
10.6701
10.123
9.46518
8.68417
7.76614
6.6945
5.44957
4.01313
2.34495
0.465734
-1.79392
-4.17774
-14.6881
-679.11
1654.11
-1102.66
1398.56
-1535.3
1407.64
-1883.22
1322.92
-2192.02
1283.8
-2450.42
1233.4
-2666.29
1190.88
-2838.98
1147.69
-2969.93
1105.94
-3059.03
1064.11
-3106.16
1022.13
-3110.62
979.464
-3071
935.38
-2982.9
886.901
-2833.6
825.707
-2595.42
736.823
-2222.58
602.164
-1661.74
414.16
-897.476
210.747
77.5238
-198.75
1852.87
-442.662
1642.47
-701.662
1666.65
-915.297
1536.56
-1119.04
1487.55
-1287.69
1402.05
-1431.82
1335.01
-1546.33
1262.21
-1634.34
1193.96
-1695.79
1125.56
-1731.73
1058.07
-1741.93
989.668
-1725.29
918.748
-1677.95
839.564
-1588.69
736.454
-1432.69
580.829
-1181.84
351.31
-818.143
50.4754
-406.956
-200.426
-329.432
-120.814
1973.69
-267.834
1789.49
-378.161
1776.98
-442.255
1600.65
-496.699
1542
-514.815
1420.17
-516.714
1336.91
-494.221
1239.72
-454.368
1154.11
-397.469
1068.67
-326.657
987.269
-242.088
905.106
-143.628
820.3
-33.0321
728.978
81.7648
621.671
182.277
480.328
240.918
292.687
212.899
78.5172
99.1663
-86.6707
-230.265
14.2282
1959.47
-1.21044
1804.94
3.75577
1772.02
20.028
1584.39
35.8125
1526.23
66.2407
1389.75
96.7299
1306.44
134.741
1201.72
175.8
1113.06
226.521
1017.96
291.601
922.201
373.714
823.004
471.215
722.81
586.52
613.683
720.439
487.762
842.992
357.784
880.478
255.209
727.896
231.108
411.367
229.872
181.102
-14.5216
1973.99
-47.191
1837.62
-71.2786
1796.11
-109.382
1622.5
-146.815
1563.67
-191.677
1434.62
-245.968
1360.73
-309.145
1264.9
-377.745
1181.67
-435.182
1075.4
-463.575
950.602
-453.457
812.894
-406.155
675.518
-319.981
527.519
-196.282
364.08
-51.1136
212.639
78.564
125.566
174.516
135.187
176.735
227.677
357.837
-53.0656
2027.07
-145.922
1930.48
-219.17
1869.37
-307.02
1710.36
-395.72
1652.37
-492.45
1531.36
-598.674
1466.97
-712.453
1378.69
-833.697
1302.92
-950.88
1192.6
-1052.58
1052.31
-1125.33
885.645
-1165.12
715.322
-1175.53
537.931
-1164.92
353.476
-1126.86
174.59
-1022.06
20.7692
-782.299
-104.563
-398.233
-156.379
-40.3953
49.5598
1977.51
-61.1317
2041.18
-109.251
1917.5
-151.765
1752.88
-189.629
1690.25
-225.45
1567.19
-256.294
1497.82
-281.353
1403.76
-303.267
1324.85
-328.55
1217.89
-363.57
1087.35
-406.002
928.092
-448.648
757.983
-491.091
580.391
-534.861
397.265
-575.09
214.84
-606.3
51.9965
-590.428
-120.423
-429.281
-317.511
-469.676
202.273
1775.25
143.887
2099.58
144.008
1917.39
171.913
1724.99
216.91
1645.26
262.269
1521.85
321.959
1438.14
388.801
1336.93
465.721
1247.94
536.768
1146.86
588.255
1035.87
606.977
909.382
592.516
772.451
544.74
628.179
462.461
479.554
352.311
325.004
239.857
164.467
146.468
-27.015
29.1247
-200.153
-440.551
243.739
1531.53
254.068
2089.27
269.535
1901.94
316.071
1678.47
385.108
1576.24
450.715
1456.26
525.684
1363.19
603.044
1259.6
687.528
1163.47
769.738
1064.67
841.157
964.461
889.849
860.709
908.509
753.805
892.48
644.226
838.781
533.267
744.84
418.962
608.194
301.127
415.365
165.833
206.779
8.45462
-233.772
182.345
1349.19
228.206
2043.41
253.144
1877.01
295.534
1636.09
357.101
1514.68
416.106
1397.27
478.099
1301.2
538.369
1199.34
599.028
1102.82
655.587
1008.12
703.786
916.269
737.782
826.723
752.878
738.714
745.736
651.377
714.028
564.981
653.098
479.899
554.962
399.268
406.487
314.315
206.152
208.803
-27.6194
89.6575
1259.55
141.713
1991.37
188.858
1829.88
241.25
1583.71
305.392
1450.55
370.22
1332.45
434.97
1236.47
496.804
1137.52
555.584
1044.05
610.614
953.099
662.133
864.762
710.939
777.925
757.207
692.458
796.359
612.232
815.959
545.391
792.812
503.053
702.542
489.547
527.393
489.472
276.281
459.933
248.661
-29.6764
1289.21
27.8252
1933.85
103.223
1754.46
159.61
1527.31
213.5
1396.65
267.418
1278.52
326.417
1177.45
396.738
1067.18
483.259
957.514
591.476
844.865
722.934
733.29
872.713
628.128
1022.7
542.464
1140.81
494.104
1189.25
496.953
1132.77
559.523
960.465
661.853
681.129
768.809
346.553
794.511
595.214
-147.332
1436.54
-130.321
1916.84
-73.2618
1697.41
-71.2793
1525.33
-102.498
1427.87
-146.26
1322.28
-180.681
1211.88
-193.573
1080.07
-178.233
942.182
-131.642
798.28
-53.9004
655.559
51.215
523.024
174.052
419.641
300.331
367.84
414.172
383.123
491.124
482.578
490.356
662.623
383.05
876.117
189.256
988.307
784.47
-104.888
1541.4
-239.589
2051.51
-384.062
1841.86
-530.008
1671.24
-698.119
1595.96
-887.902
1512.04
-1080.25
1404.21
-1265.05
1264.85
-1438.93
1116.05
-1602.72
962.053
-1754.06
806.894
-1881.95
650.908
-1962.51
500.19
-1959.48
364.812
-1841.16
264.794
-1586.99
228.408
-1198.31
273.927
-716.279
394.079
-266.519
538.532
517.95
289.547
1251.84
334.193
2006.86
138.449
2037.59
-81.2989
1890.98
-265.068
1779.72
-436.102
1683.06
-609.453
1577.56
-790.354
1445.75
-976.083
1301.77
-1164.82
1150.79
-1354.94
997.003
-1542.07
838.023
-1716.37
674.486
-1858.41
506.841
-1932.72
339.089
-1884.18
179.852
-1653.81
43.553
-1209.23
-50.5142
-578.095
-92.6139
-60.1451
624.568
627.25
1001
1630.4
953.139
2085.44
771.949
2072.15
634.451
1917.2
544.215
1773.27
468.898
1652.85
385.166
1529.45
289.844
1397.06
185.058
1255.54
73.8174
1108.21
-42.7766
954.567
-162.009
793.663
-279.947
624.714
-391.387
450.464
-479.842
268.236
-522.717
86.3706
-501.136
-72.1425
-348.853
-244.944
-408.998
491.918
135.312
719.219
1403.09
728.285
2076.37
689.634
2110.79
679.63
1927.2
705.238
1747.65
750.944
1607.14
797.387
1482.99
834.866
1359.57
859.293
1231.1
869.295
1098.2
861.755
962.096
831.267
824.144
771.322
684.649
677.326
544.451
544.726
400.826
377.067
254.015
213.771
91.1338
67.3476
-98.5409
-341.65
66.7016
68.5782
-7.43845
1477.22
14.9653
2053.96
105.779
2019.97
209.511
1823.46
314.942
1642.21
421.435
1500.63
524.352
1380.06
617.014
1266.9
694.341
1153.76
753.022
1039.51
790.197
924.908
802.885
811.45
787.834
699.69
741.794
590.484
661.427
481.185
544.923
370.514
390.087
245.964
193.897
97.6403
-147.753
-132.515
201.085
-280.295
1624.99
-245.191
2018.85
-141.736
1916.5
-28.0301
1709.74
86.2157
1527.95
204.371
1382.47
316.126
1268.3
415.186
1167.84
496.692
1072.24
557.73
978.469
596.727
885.904
613.04
795.135
606.395
706.329
577.198
619.683
524.917
533.462
448.347
447.093
338.315
356.005
185.175
250.801
37.4232
-259.003
-110.518
146.093
378.337
566.446
719.908
824.322
915.743
986.939
1038.51
1069.79
1079.57
1066.2
1027.45
961.978
868.023
743.295
577.127
346.329
)
;

boundaryField
{
    outletWall
    {
        type            calculated;
        value           nonuniform List<scalar> 
60
(
-6229.47
-4662.73
-4278.4
-4130.86
-4851.98
-5699.69
-6391.41
-5957.48
-3016.67
3885.8
9289.47
9782.99
5894.33
6462.87
-2202.74
-24946.4
-6773.15
-84030.6
-104059
236076
37651.5
-30457.7
934.02
-9777.17
-2899.57
-4430.99
-1400.77
-200.039
2351.27
5104.61
4644.02
2110.13
-250.039
-1365.47
-4069.04
-3063.74
-9399.61
1168.87
-28910.1
37772.1
-3061.12
-3644.59
-2191.27
-243.659
2300
3347.84
3105.04
2053.08
455.662
-2697.29
-4022.7
-2657.65
-1948.14
-660.651
17003.5
-9299.33
-4095.53
-86959.1
-102778
235322
)
;
    }
    fineWalls
    {
        type            calculated;
        value           uniform 0;
    }
    fineFrontAndBack
    {
        type            calculated;
        value           nonuniform List<scalar> 
960
(
-1.32586e-15
6.01149e-14
-2.28477e-14
-4.3965e-14
-1.75249e-13
-6.70179e-15
1.04037e-13
-1.36828e-13
1.59748e-12
6.91455e-13
7.53648e-13
1.26106e-13
-4.18118e-13
-3.30083e-13
-3.03794e-12
-7.69599e-13
-8.59084e-13
-4.65177e-12
-9.72653e-13
-1.65029e-12
-9.55025e-14
-5.00228e-13
-5.36435e-13
-5.64315e-13
-5.2669e-13
-7.1684e-13
-1.34405e-11
-9.42002e-13
-9.45585e-13
-9.55023e-13
-9.6283e-13
-9.875e-13
-9.69118e-13
-1.00239e-12
-1.00572e-12
-9.79319e-13
-9.81131e-13
-1.00084e-12
-9.57132e-13
-1.10952e-12
-2.24606e-12
3.01463e-11
5.06504e-11
6.30992e-11
1.29045e-10
4.79991e-12
6.00438e-12
5.67976e-12
4.10378e-11
1.32939e-11
2.2759e-11
2.65712e-11
-2.73327e-12
-3.15256e-12
-3.74863e-12
-2.96975e-11
-5.92592e-12
-6.19974e-12
-6.54475e-12
-3.38929e-11
-6.38529e-13
-9.15375e-13
-7.31433e-13
-4.22581e-13
-7.46804e-14
1.72338e-13
3.11883e-13
3.77796e-13
4.03341e-13
4.00452e-13
3.75211e-13
3.27956e-13
2.73691e-13
1.25144e-12
1.19381e-13
-2.25223e-14
-7.68618e-14
-1.64184e-13
-2.39949e-13
-3.68224e-13
-1.83421e-12
-1.98076e-12
-1.11403e-11
-2.80383e-12
-2.69235e-12
-1.23489e-11
-1.92242e-12
-1.85887e-12
-8.15529e-12
-1.20132e-12
-1.45952e-12
-4.70111e-12
2.78651e-13
2.9606e-13
2.69435e-13
1.60518e-12
2.87649e-13
3.05658e-13
8.6132e-13
-2.74278e-14
-9.86479e-09
3.24798e-10
5.61667e-10
-8.06054e-11
4.76546e-11
3.06109e-11
8.1715e-12
1.0718e-11
1.10757e-11
2.60206e-12
3.20614e-12
3.69938e-12
2.09137e-12
-9.58444e-14
-4.85329e-14
3.71373e-15
3.46435e-16
2.18671e-15
4.7654e-14
3.25764e-09
4.46391e-10
8.06493e-10
4.09424e-10
1.6348e-10
4.41458e-11
8.81536e-12
1.71383e-11
8.72819e-12
5.28391e-12
7.4805e-12
6.3773e-12
6.58908e-12
2.58591e-12
-7.42272e-14
5.73266e-15
-5.09265e-15
-5.38801e-14
9.81428e-14
1.92621e-10
9.1242e-10
8.88449e-10
7.55286e-10
2.14542e-10
3.48121e-11
3.15665e-12
2.25474e-11
6.55477e-12
7.01272e-12
8.84868e-12
8.78696e-12
9.42215e-12
6.02414e-12
7.45844e-13
-4.58522e-14
1.8966e-15
2.69646e-14
2.11954e-13
8.39024e-10
1.12038e-09
8.12492e-10
-2.7946e-10
6.82686e-13
1.70043e-11
9.86028e-13
2.09523e-11
4.98209e-12
7.43871e-12
6.76926e-12
7.22626e-12
1.00151e-11
8.16792e-12
2.10184e-12
-6.9592e-14
6.22621e-15
4.53104e-14
7.91483e-13
5.92769e-10
9.95788e-10
7.24773e-10
-1.61853e-10
2.25344e-11
1.0431e-11
5.99408e-12
1.62354e-11
3.09073e-12
5.0965e-12
3.86725e-12
6.33981e-12
9.61462e-12
8.87862e-12
3.25677e-12
1.67912e-14
-2.27854e-14
1.17749e-13
3.72606e-12
5.71335e-10
8.94667e-10
6.43743e-10
-1.12758e-10
3.03884e-11
1.52268e-11
1.51807e-11
9.38549e-12
8.12275e-13
3.75819e-13
-9.58677e-14
4.73192e-12
9.11006e-12
8.70145e-12
3.84939e-12
1.77705e-13
-3.47869e-13
-9.96616e-13
1.16753e-11
4.57567e-10
7.84022e-10
6.33301e-10
1.12032e-10
7.22994e-11
-8.98315e-12
2.14895e-11
3.63582e-12
-3.59101e-12
-6.48159e-12
-5.16966e-12
2.86696e-12
8.5663e-12
7.83495e-12
3.72323e-12
1.84757e-13
-8.40796e-13
-6.84125e-12
7.61122e-12
3.46785e-10
6.92036e-10
6.33882e-10
4.72576e-10
1.63012e-10
-1.18478e-12
1.74669e-11
6.52143e-13
-9.43496e-12
-1.4229e-11
-9.57548e-12
2.47027e-12
7.6746e-12
5.91342e-12
3.16387e-12
3.40984e-13
-6.06085e-12
-2.48694e-11
-4.13084e-11
2.0312e-10
5.72654e-10
6.13239e-10
5.96595e-10
2.29671e-10
2.03135e-11
1.97251e-11
-1.94152e-12
-1.29495e-11
-1.99702e-11
-1.10872e-11
5.1238e-12
7.72727e-12
3.74742e-12
2.75004e-12
4.48736e-13
-1.48614e-11
-4.06209e-11
-5.52072e-11
2.08609e-11
2.22096e-10
4.17808e-10
4.44182e-10
2.12209e-10
4.55732e-11
-3.64227e-11
6.3002e-13
-1.35184e-11
-2.12519e-11
-1.09541e-11
6.15483e-12
9.19211e-12
1.9135e-12
-4.8789e-12
-8.2593e-12
-2.40056e-11
-4.16048e-11
-3.48472e-11
-9.16479e-11
-7.14526e-11
-9.07729e-12
9.3598e-11
9.97663e-11
4.21707e-11
-8.61648e-12
2.79901e-12
-1.21298e-11
-1.91333e-11
-1.46801e-11
-5.54424e-12
1.01302e-11
7.03515e-12
-3.69237e-12
-1.12838e-11
-2.02924e-11
-2.35634e-11
-1.80277e-12
-9.12133e-11
-5.98964e-11
-2.0753e-11
1.58148e-11
3.97555e-11
2.67127e-11
1.61972e-11
2.89516e-12
-9.87105e-12
-1.74471e-11
-1.87801e-11
-1.66574e-11
-1.6395e-12
8.45866e-12
6.23331e-12
2.68936e-12
-8.35386e-13
-5.2566e-13
3.08014e-11
-7.4337e-11
-6.14296e-11
-2.30197e-11
4.10333e-12
8.89332e-12
1.14638e-11
1.22779e-11
1.06944e-12
-9.94305e-12
-2.09768e-11
-2.60963e-11
-3.48193e-11
-3.828e-11
-3.57234e-11
-3.02645e-11
-2.46833e-11
-2.43359e-11
-2.8873e-11
-2.71768e-11
-4.81891e-11
-5.60111e-11
-2.13565e-11
2.24173e-13
-8.1121e-12
-3.8708e-12
4.13652e-13
-4.08909e-12
-1.43122e-11
-2.6385e-11
-2.86643e-11
-2.75384e-11
-2.35752e-11
-1.8831e-11
-2.59463e-11
-3.06685e-11
-2.66468e-11
-1.81699e-11
-1.27685e-11
-1.6944e-11
-4.67483e-11
-1.88045e-11
-8.49278e-12
-1.71024e-11
-1.52274e-11
-1.0619e-11
-1.13207e-11
-1.94914e-11
-2.79046e-11
-3.04185e-11
-2.46908e-11
-1.61408e-11
-9.12327e-12
-1.55201e-11
-2.42308e-11
-2.19118e-11
-7.90697e-12
2.78757e-12
2.23929e-11
-3.77191e-11
-1.49954e-11
-1.60262e-11
-2.08716e-11
-2.18835e-11
-1.87644e-11
-1.74112e-11
-2.27964e-11
-2.75606e-11
-2.7656e-11
-3.15069e-11
-1.87547e-11
-8.7825e-12
-7.41641e-12
-1.44808e-11
-1.75711e-11
-5.93818e-12
1.16825e-12
3.98261e-11
-3.62261e-11
-1.04926e-11
-2.01931e-11
-2.04752e-11
-2.3744e-11
-2.34079e-11
-2.11792e-11
-2.61037e-11
-2.8006e-11
-2.1484e-11
-2.99638e-11
-2.18815e-11
-1.29297e-11
-3.62744e-12
-5.96782e-12
-9.16702e-12
-1.0118e-12
1.76445e-12
5.72263e-11
3.22145e-11
-7.24391e-12
-1.73624e-11
-1.96742e-11
-2.52215e-11
-2.74394e-11
-2.46827e-11
-3.24845e-11
-2.54912e-11
-1.15202e-11
-1.86691e-11
-2.18606e-11
-2.00685e-11
-8.72193e-12
-2.38072e-12
-1.67942e-12
2.29709e-13
5.58083e-13
3.91454e-11
5.86199e-12
-5.70053e-12
-2.27253e-11
-1.64535e-11
-5.20457e-12
-2.30046e-11
-2.19094e-11
-3.6113e-11
-1.70443e-11
-2.49721e-12
-1.45825e-11
-2.46348e-11
-2.3535e-11
-1.16198e-11
-1.55925e-12
3.72708e-13
3.61092e-13
8.91336e-14
8.55194e-12
-1.78694e-12
-2.26962e-12
-2.51005e-11
-3.79125e-11
-7.29506e-11
-2.77786e-11
-3.26873e-11
-2.55375e-11
-3.76247e-12
-1.42391e-12
-2.02551e-11
-3.33015e-11
-2.83185e-11
-1.44086e-11
-3.70081e-12
-1.28444e-13
2.03976e-13
-2.89429e-14
1.32586e-15
-6.01149e-14
2.28477e-14
4.3965e-14
1.75249e-13
6.70179e-15
-1.04037e-13
1.36828e-13
-1.59748e-12
-6.91455e-13
-7.53648e-13
-1.26106e-13
4.18118e-13
3.30083e-13
3.03794e-12
7.69599e-13
8.59084e-13
4.65177e-12
9.72653e-13
1.65029e-12
9.55025e-14
5.00228e-13
5.36435e-13
5.64315e-13
5.2669e-13
7.1684e-13
1.34405e-11
9.42002e-13
9.45585e-13
9.55023e-13
9.6283e-13
9.875e-13
9.69118e-13
1.00239e-12
1.00572e-12
9.79319e-13
9.81131e-13
1.00084e-12
9.57132e-13
1.10952e-12
2.24606e-12
-3.01463e-11
-5.06504e-11
-6.30992e-11
-1.29045e-10
-4.79991e-12
-6.00438e-12
-5.67976e-12
-4.10378e-11
-1.32939e-11
-2.2759e-11
-2.65712e-11
2.73327e-12
3.15256e-12
3.74863e-12
2.96975e-11
5.92592e-12
6.19974e-12
6.54475e-12
3.38929e-11
6.38529e-13
9.15375e-13
7.31433e-13
4.22581e-13
7.46804e-14
-1.72338e-13
-3.11883e-13
-3.77796e-13
-4.03341e-13
-4.00452e-13
-3.75211e-13
-3.27956e-13
-2.73691e-13
-1.25144e-12
-1.19381e-13
2.25223e-14
7.68618e-14
1.64184e-13
2.39949e-13
3.68224e-13
1.83421e-12
1.98076e-12
1.11403e-11
2.80383e-12
2.69235e-12
1.23489e-11
1.92242e-12
1.85887e-12
8.15529e-12
1.20132e-12
1.45952e-12
4.70111e-12
-2.78651e-13
-2.9606e-13
-2.69435e-13
-1.60518e-12
-2.87649e-13
-3.05658e-13
-8.6132e-13
2.74278e-14
9.86479e-09
-3.24798e-10
-5.61667e-10
8.06054e-11
-4.76546e-11
-3.06109e-11
-8.1715e-12
-1.0718e-11
-1.10757e-11
-2.60206e-12
-3.20614e-12
-3.69938e-12
-2.09137e-12
9.58444e-14
4.85329e-14
-3.71373e-15
-3.46435e-16
-2.18671e-15
-4.7654e-14
-3.25764e-09
-4.46391e-10
-8.06493e-10
-4.09424e-10
-1.6348e-10
-4.41458e-11
-8.81536e-12
-1.71383e-11
-8.72819e-12
-5.28391e-12
-7.4805e-12
-6.3773e-12
-6.58908e-12
-2.58591e-12
7.42272e-14
-5.73266e-15
5.09265e-15
5.38801e-14
-9.81428e-14
-1.92621e-10
-9.1242e-10
-8.88449e-10
-7.55286e-10
-2.14542e-10
-3.48121e-11
-3.15665e-12
-2.25474e-11
-6.55477e-12
-7.01272e-12
-8.84868e-12
-8.78696e-12
-9.42215e-12
-6.02414e-12
-7.45844e-13
4.58522e-14
-1.8966e-15
-2.69646e-14
-2.11954e-13
-8.39024e-10
-1.12038e-09
-8.12492e-10
2.7946e-10
-6.82686e-13
-1.70043e-11
-9.86028e-13
-2.09523e-11
-4.98209e-12
-7.43871e-12
-6.76926e-12
-7.22626e-12
-1.00151e-11
-8.16792e-12
-2.10184e-12
6.9592e-14
-6.22621e-15
-4.53104e-14
-7.91483e-13
-5.92769e-10
-9.95788e-10
-7.24773e-10
1.61853e-10
-2.25344e-11
-1.0431e-11
-5.99408e-12
-1.62354e-11
-3.09073e-12
-5.0965e-12
-3.86725e-12
-6.33981e-12
-9.61462e-12
-8.87862e-12
-3.25677e-12
-1.67912e-14
2.27854e-14
-1.17749e-13
-3.72606e-12
-5.71335e-10