/*--------------------------------*- C++ -*----------------------------------*\
| =========                 |                                                 |
| \\      /  F ield         | OpenFOAM: The Open Source CFD Toolbox           |
|  \\    /   O peration     | Version:  4.1                                   |
|   \\  /    A nd           | Web:      www.OpenFOAM.org                      |
|    \\/     M anipulation  |                                                 |
\*---------------------------------------------------------------------------*/
FoamFile
{
    version     2.0;
    format      ascii;
    class       volScalarField;
    location    "22";
    object      p;
}
// * * * * * * * * * * * * * * * * * * * * * * * * * * * * * * * * * * * * * //

dimensions      [0 2 -2 0 0 0 0];

internalField   nonuniform List<scalar> 
1680
(
1436.55
448.533
1097.04
360.238
123.29
244.287
189.647
133.108
143.672
116.493
106.517
99.4198
92.6979
100.581
87.9324
83.1635
85.4848
77.5173
93.6782
76.8915
84.0536
62.8703
86.5668
84.0851
83.3992
83.2039
82.6901
81.9012
81.7158
80.3571
81.4835
53.6415
70.5172
69.4332
68.846
67.9886
67.8869
65.7374
68.5146
61.953
12.6044
37.9431
39.064
56.1691
49.7804
49.2345
52.2562
60.7558
56.6406
56.6441
58.4913
57.8828
57.8804
57.9446
57.8156
57.6913
57.7653
57.7488
57.7661
57.7509
-72.4915
-56.1791
34.8674
53.7776
17.5919
16.8442
-15.7135
-33.0609
-3.90036
25.6001
21.8767
-20.397
-103.318
-116.67
-76.264
-29.5084
-17.6462
33.4566
67.0186
-139.002
-105.344
19.6779
53.447
11.2042
11.8427
-20.0217
-40.7487
-8.38011
17.8547
12.3811
-30.9142
-111.661
-124.985
-80.8736
-26.9305
-13.0666
34.5357
62.3447
-232.812
-174.131
-3.6623
54.7459
6.11064
8.22381
-23.4828
-46.7062
-11.5893
10.666
3.97491
-39.9304
-118.828
-132.475
-85.1333
-25.2499
-9.92633
33.8796
67.392
-360.872
-267.409
-37.9911
57.3815
3.03903
6.49978
-25.9344
-50.7302
-13.6807
4.15187
-3.23401
-47.3686
-124.681
-139.015
-88.981
-24.1926
-7.0551
34.2342
77.0147
-528.134
-387.981
-85.482
59.5489
0.525676
7.57851
-27.3502
-52.7975
-15.17
-1.51644
-9.29149
-53.1914
-129.029
-144.367
-92.4682
-23.2516
-4.62658
36.3076
80.4156
-736.372
-535.679
-147.008
62.3937
-3.42594
12.1987
-28.1451
-53.0763
-16.266
-6.30037
-14.2763
-57.408
-131.91
-148.572
-95.4689
-22.0563
-2.54056
39.4161
70.5382
-986.961
-706.785
-221.567
68.2239
-10.0438
17.6539
-28.7932
-52.2308
-17.0609
-10.2449
-18.2802
-60.0668
-133.064
-151.668
-97.9216
-20.5964
-0.878256
41.1329
68.7433
-1280.05
-895.147
-306.785
77.8449
-19.0795
21.9269
-29.5885
-50.6665
-17.5612
-13.3893
-21.3528
-61.1846
-131.89
-152.719
-99.858
-18.9038
0.48675
42.683
71.7684
-1622.15
-1095.07
-401.865
92.147
-28.5507
24.2039
-30.7188
-48.4036
-17.7305
-15.8303
-23.6214
-61.0079
-128.202
-150.985
-101.017
-17.0606
1.66252
44.2557
72.8444
-2011.47
-1303.99
-507.737
113.235
-36.6765
24.7573
-32.1272
-45.5858
-17.4502
-17.5589
-25.0568
-59.6537
-122.405
-146.652
-101.065
-15.185
2.59629
45.1904
73.8768
-2481.47
-1529.12
-623.858
143.635
-42.5706
24.4267
-33.7245
-42.6804
-16.7243
-18.7773
-26.0179
-57.6292
-115.602
-140.704
-99.5169
-13.2625
3.12775
45.946
77.2531
-3005.34
-1774.14
-757.235
179.867
-46.0282
23.6305
-35.3196
-39.7704
-15.2048
-19.098
-25.9644
-54.5348
-108.133
-133.332
-96.4863
-11.2775
3.12341
46.54
82.3088
-3747.5
-2073.59
-974.494
213.062
-46.9083
22.2452
-36.4769
-37.1994
-13.343
-19.5324
-26.2898
-52.2794
-101.587
-126.149
-92.9193
-9.2748
2.5707
47.2748
86.0672
-4473.56
-2458.09
-1300.43
231.268
-44.4293
20.3632
-36.6831
-34.1408
-10.0076
-17.3535
-23.8433
-47.2699
-93.3057
-117.189
-87.9183
-7.28494
1.25515
46.9111
85.0934
-5932.48
-2763.78
-1510.27
218.862
-40.1773
18.1926
-36.3388
-32.2887
-8.80514
-18.1935
-25.8886
-47.3426
-89.189
-111.89
-83.8448
-4.69298
-0.858135
42.9163
86.9975
-5621.82
-2838.2
-1475.55
169.785
-36.5333
15.3368
-35.8793
-26.9057
-1.56952
-7.99605
-15.0161
-34.5839
-75.2542
-99.4333
-74.3728
-1.87959
-5.12791
40.3689
66.5786
-8049.95
-2726.34
-1358.23
98.3981
-27.9992
12.0689
-32.7364
-28.328
-8.44604
-21.5044
-31.579
-47.8983
-81.7763
-101.407
-72.0738
-1.04992
-17.4304
9.44477
98.7712
-2051.75
-261.371
-483.818
18.0232
-14.9314
9.16405
-26.5261
-12.4365
18.7733
22.8357
17.1574
-2.20573
-45.4125
-78.1976
-49.1966
13.3715
-32.6895
-15.2096
-54.7528
-14876.3
1434.85
240.405
-50.4582
-34.3552
4.65352
-39.5217
-33.364
-35.2837
-67.4358
-79.2814
-79.567
-94.5691
-90.3765
-59.219
18.6605
-0.895368
-58.8386
329.51
19800.4
-8253.48
-1222.45
-89.1306
-67.2558
-1.85718
-27.0272
29.6676
103.074
158.208
155.775
108.961
31.8177
-6.38006
-19.2267
-5.56737
-139.608
109.086
-1109.05
160.826
160.284
160.042
159.28
158.469
157.548
156.582
155.548
154.484
153.394
152.271
151.194
150.061
148.863
147.761
146.693
145.779
144.803
144.245
143.096
143.835
144.24
144.409
144.59
144.711
144.766
144.788
144.751
144.685
144.567
144.426
144.247
144.031
143.79
143.554
143.295
143.068
142.817
142.624
142.357
151.036
150.795
150.677
150.503
150.364
150.192
150.034
149.856
149.682
149.493
149.308
149.108
148.92
148.714
148.525
148.315
148.138
147.922
147.776
147.503
148.717
148.717
148.719
148.697
148.692
148.66
148.639
148.6
148.566
148.519
148.475
148.419
148.37
148.306
148.255
148.183
148.135
148.055
148.011
147.907
150.463
150.362
150.327
150.25
150.203
150.134
150.081
150.015
149.959
149.895
149.837
149.773
149.716
149.649
149.595
149.523
149.476
149.396
149.36
149.256
150.601
150.545
150.531
150.484
150.462
150.419
150.391
150.351
150.319
150.279
150.245
150.205
150.17
150.127
150.096
150.048
150.021
149.965
149.949
149.876
151.401
151.331
151.311
151.257
151.228
151.181
151.147
151.104
151.068
151.026
150.99
150.949
150.913
150.87
150.838
150.791
150.764
150.709
150.695
150.624
151.915
151.854
151.839
151.791
151.767
151.725
151.697
151.659
151.628
151.591
151.559
151.523
151.492
151.455
151.426
151.384
151.362
151.312
151.301
151.237
152.519
152.459
152.442
152.395
152.371
152.329
152.301
152.263
152.232
152.197
152.165
152.13
152.099
152.063
152.035
151.995
151.973
151.926
151.914
151.853
153.057
153
152.985
152.94
152.917
152.878
152.851
152.816
152.786
152.753
152.723
152.69
152.66
152.627
152.599
152.563
152.541
152.497
152.485
152.428
153.591
153.536
153.521
153.478
153.456
153.418
153.392
153.358
153.329
153.298
153.268
153.237
153.208
153.176
153.149
153.115
153.093
153.051
153.04
152.985
154.096
154.044
154.029
153.988
153.966
153.931
153.906
153.873
153.846
153.816
153.787
153.758
153.729
153.7
153.673
153.641
153.619
153.581
153.569
153.517
154.583
154.534
154.519
154.48
154.459
154.425
154.401
154.37
154.343
154.315
154.287
154.26
154.231
154.204
154.177
154.148
154.126
154.09
154.078
154.028
155.05
155.003
154.988
154.951
154.931
154.898
154.875
154.845
154.82
154.792
154.766
154.74
154.712
154.687
154.66
154.634
154.611
154.578
154.565
154.519
155.497
155.453
155.439
155.404
155.385
155.354
155.332
155.304
155.279
155.253
155.228
155.203
155.176
155.153
155.126
155.102
155.078
155.049
155.035
154.991
155.912
155.872
155.858
155.826
155.808
155.779
155.759
155.734
155.711
155.687
155.664
155.641
155.617
155.596
155.57
155.55
155.525
155.5
155.484
155.445
156.306
156.268
156.254
156.222
156.205
156.177
156.157
156.133
156.111
156.088
156.066
156.044
156.022
156.003
155.978
155.962
155.937
155.918
155.903
155.868
156.704
156.677
156.665
156.633
156.62
156.595
156.575
156.552
156.53
156.507
156.484
156.46
156.435
156.411
156.383
156.363
156.329
156.314
156.287
156.25
156.978
156.969
156.984
156.963
156.963
156.956
156.951
156.946
156.94
156.934
156.926
156.917
156.905
156.89
156.87
156.849
156.81
156.789
156.717
156.66
156.943
156.884
156.923
156.933
156.951
156.968
156.987
157.008
157.031
157.056
157.084
157.115
157.15
157.188
157.232
157.281
157.334
157.402
157.444
157.607
57.7214
57.8069
57.549
57.5516
57.5052
57.6689
56.5529
55.7765
55.6527
56.0718
49.4072
49.5496
50.3571
37.2896
32.3759
33.1566
34.1719
13.2517
13.4102
-5.32066
19.2721
22.0823
18.9288
18.6068
18.7903
20.3593
22.1261
24.1836
9.66796
29.3947
29.4579
30.0224
29.9452
29.8314
29.5834
29.4254
29.0731
24.9749
-13.2469
11.5845
-3.40587
14.7759
-3.2044
4.44137
-0.0460275
3.65169
6.72084
0.759005
2.62216
0.321773
1.20903
0.454164
-4.20872
-4.52662
-5.10436
-6.81465
-6.85332
-6.85967
-6.29447
-6.47818
57.6025
57.2244
60.2009
57.1276
57.2095
54.9128
56.2251
55.4162
54.9804
60.1256
61.1324
52.5026
48.2812
46.8967
25.8694
-20.7719
-58.2732
-29.3826
-13.8928
57.5724
57.165
60.2174
56.9936
57.1304
54.6778
56.0316
55.2584
54.7133
59.7915
60.7025
52.1499
48.2727
47.0322
25.6063
-23.2429
-62.9659
-32.0624
-14.926
57.3951
57.0782
60.1385
56.5308
56.542
54.126
55.847
55.2323
54.4332
59.363
59.9425
51.4358
48.1899
47.3072
25.151
-25.9083
-70.0769
-41.114
-15.6768
57.098
56.931
59.7572
55.8587
55.5213
53.7077
55.8261
55.2885
54.1121
58.9375
59.0022
50.5061
48.1474
47.4937
24.5291
-28.9908
-77.8649
-50.9623
-15.3312
56.792
56.7978
59.1147
55.2701
54.3303
53.4496
55.8662
55.3879
53.6904
58.5054
58.0978
49.875
48.0709
47.1612
23.5345
-32.2477
-85.1764
-59.8463
-14.9774
56.4783
56.8039
58.5293
54.7896
53.0656
53.2745
55.936
55.4928
53.1621
58.1459
57.5487
49.6764
47.6063
46.3214
22.3216
-35.7463
-91.2659
-67.2317
-14.4327
56.1909
57.0393
58.0254
54.1638
51.6963
53.208
55.9846
55.5804
52.4798
57.8611
57.6463
49.9112
46.2621
44.4502
20.765
-39.5864
-95.9031
-72.0885
-13.8882
56.0396
57.3305
57.5338
53.5858
50.0204
53.1963
56.0053
55.4545
51.6278
57.5323
58.6479
50.4358
43.6942
41.1258
18.2564
-43.5182
-98.744
-74.8702
-13.5583
55.9683
57.5677
57.359
53.577
47.5493
53.048
55.9264
55.105
50.8104
57.5563
60.4834
51.14
39.4006
35.7814
14.2376
-46.4144
-99.8528
-75.5658
-13.2638
55.9032
57.5297
57.7625
54.2012
45.2718
52.7742
55.4062
54.2441
50.3847
58.1297
63.012
51.7431
32.8743
27.8226
8.35244
-48.0317
-99.119
-74.1936
-11.1339
55.6699
57.0169
58.5762
55.2333
43.8007
52.6865
54.0321
52.1137
50.303
59.1398
65.9409
52.0563
23.6599
16.8314
0.415762
-48.6533
-96.0984
-71.0441
-9.05422
55.089
55.9688
59.6589
56.4235
42.9478
52.4296
51.1461
47.991
49.6596
60.0871
68.8597
51.8762
11.6219
2.83884
-9.34582
-48.3481
-90.5712
-66.0277
-3.69242
53.9623
54.2703
60.9203
57.9126
42.0153
49.2005
45.2422
41.1423
47.3949
60.8111
71.3071
50.9956
-2.75834
-13.3797
-20.1504
-47.412
-84.1271
-59.693
-1.82006
51.984
51.6243
61.7966
59.2245
41.3749
44.4473
36.0059
31.772
43.0417
61.2516
72.4292
48.9407
-18.2565
-30.2732
-30.6414
-46.2652
-80.4256
-53.5808
8.28751
48.6429
47.6978
62.0628
60.0424
41.221
43.0425
25.5036
21.6688
37.2965
60.9252
71.1669
44.7244
-33.3463
-46.2927
-39.7919
-43.9911
-72.0977
-44.2236
17.5439
43.2591
42.1175
61.1396
59.9429
40.4858
43.0663
15.7958
12.2818
30.5168
59.3289
67.0643
37.8386
-47.0112
-60.6792
-47.4027
-41.3659
-60.651
-28.2965
37.7719
34.8017
33.9858
59.0885
58.9322
38.0331
41.1304
7.53192
3.48764
23.0368
55.9637
60.2569
28.401
-59.3237
-73.6057
-53.9649
-38.6488
-49.0034
-11.7715
52.6984
21.6975
21.8444
56.1095
57.5285
34.3916
36.1231
0.440825
-5.57294
15.2877
50.3615
51.5368
16.894
-71.0765
-85.6288
-60.1092
-36.4629
-37.8328
5.69415
61.0119
1.6785
4.13899
51.5097
56.3542
29.9062
29.4961
-5.60076
-14.9441
7.9408
42.5736
41.9905
4.18917
-82.6943
-96.9712
-65.9501
-34.6343
-29.7055
20.4032
64.8353
-28.1057
-21.1087
44.7738
54.9991
24.1867
22.8236
-10.8735
-24.2324
1.56528
33.8751
31.9798
-8.54462
-93.6556
-107.381
-71.3346
-32.3163
-23.6576
28.6101
66.7183
748.61
665.902
616.683
560.465
511.487
464.299
420.48
379.164
340.35
303.75
269.185
236.445
205.318
175.71
147.605
120.188
93.6559
72.2486
48.2386
12.4855
58.2453
36.0774
44.1495
33.2517
30.5275
23.9817
19.0847
13.8778
9.3448
5.27526
1.89746
-0.724964
-2.48283
-3.29138
-2.9918
-1.60964
0.623546
3.97703
7.85773
10.7819
51.1759
45.2069
54.0381
47.8683
50.7413
48.2524
47.935
46.3584
45.1326
43.6643
42.2873
40.974
39.8346
38.8885
38.1841
37.7821
37.626
38.0238
38.7884
40.1014
67.5916
63.5969
66.3172
60.1524
61.1475
57.2643
56.2141
53.8337
52.2698
50.5536
49.1425
47.8865
46.8734
46.0599
45.3872
44.8068
44.2756
43.3728
42.3023
40.7727
34.6648
30.1588
31.6413
26.9823
28.0915
24.9714
24.8241
23.069
22.3569
21.2711
20.5516
19.853
19.3359
18.8727
18.4396
17.7848
16.5897
15.0126
11.706
10.3236
4.17895
0.268317
1.39877
-2.34179
-1.64878
-4.79003
-5.28587
-7.74078
-9.24135
-11.5161
-13.6134
-15.8832
-17.9704
-19.8307
-21.373
-22.6941
-23.6954
-23.9583
-24.071
-22.0519
-5.27434
-7.25317
-5.26303
-7.76541
-5.97366
-8.04
-7.29333
-8.4879
-8.57232
-9.23425
-9.57427
-9.83074
-9.68898
-8.97849
-7.69944
-5.83144
-3.68841
-1.04081
0.832568
4.2509
16.6727
17.2415
19.957
19.3481
22.3415
22.3529
24.6158
25.6151
27.4013
28.9704
30.7304
32.5662
34.4957
36.5456
38.6566
40.8897
43.0815
45.4869
47.4111
50.435
42.6993
44.5609
47.0224
47.2984
50.0969
50.7632
52.922
54.2379
55.9427
57.4991
59.0649
60.6137
62.1328
63.6524
65.165
66.7445
68.2974
70.0217
71.3666
73.1348
68.1483
70.0592
71.8511
72.2266
74.2944
74.7897
76.3265
77.168
78.2461
79.1528
80.046
80.9476
81.9109
82.9872
84.1927
85.4961
86.794
88.1241
89.108
90.2774
81.9642
84.0059
85.3848
86.2178
88.0705
88.9723
90.7695
92.0758
93.67
94.9998
96.1783
96.9429
97.1491
96.5924
95.2842
93.4819
92.059
91.3056
91.5908
91.3893
105.89
105.923
106.465
106.123
106.698
106.175
106.166
105.172
104.02
101.992
99.3184
95.7388
91.3648
86.4071
81.4635
77.1697
74.0398
72.4843
72.3004
69.542
75.6374
70.7073
68.5335
64.9061
62.6126
59.2291
56.5388
53.3762
50.6925
47.9887
45.6474
43.4696
41.5941
39.9684
38.66
37.6298
36.9583
36.9642
35.9852
31.8233
23.9125
17.5096
14.4932
10.1696
6.56722
2.14105
-2.00633
-6.6646
-11.1351
-15.6882
-19.966
-23.9728
-27.4534
-30.2356
-32.0801
-32.9889
-33.0313
-32.6181
-32.7666
-31.4632
-9.61256
-12.9177
-14.9251
-17.4942
-19.468
-21.9038
-23.9397
-26.1278
-27.8541
-29.2172
-29.9335
-29.9981
-29.3403
-27.9736
-26.0198
-23.5998
-21.1471
-18.5762
-16.5532
-12.917
-6.28539
-5.33752
-2.63401
-0.425099
1.7225
3.5261
5.5394
7.48489
9.56714
11.7018
13.915
16.1827
18.463
20.7394
22.9261
25.0841
27.0637
29.2539
31.0755
33.9418
13.6405
16.4213
20.1723
23.6732
26.7501
29.3657
31.9042
34.1964
36.3827
38.4023
40.2708
41.9948
43.5685
45.027
46.3508
47.6277
48.7574
49.9887
50.8764
52.1869
47.18
49.5369
50.7419
52.2
53.3602
54.3652
55.3846
56.2453
57.0885
57.855
58.583
59.2848
59.9722
60.6732
61.3782
62.1622
62.9289
63.8903
64.6116
65.7371
62.2494
64.5558
64.217
65.0906
65.5858
66.308
67.001
67.6389
68.2817
68.8765
69.461
70.0399
70.5975
71.1752
71.7765
72.4526
73.1453
74.0066
74.6231
75.5113
102.593
102.995
101.394
100.204
98.0416
96.0596
93.9493
91.8665
89.8508
87.9769
86.2296
84.7783
83.5385
82.5233
81.7423
81.1135
80.6728
80.274
80.1144
79.4177
)
;

boundaryField
{
    outletWallLeft
    {
        type            fixedValue;
        value           uniform 0;
    }
    fineWallsLeft
    {
        type            zeroGradient;
    }
    fineFrontAndBackLeft
    {
        type            zeroGradient;
    }
    fineplugLeft
    {
        type            cyclicAMI;
        value           nonuniform List<scalar> 
20
(
145.472
148.968
145.347
144.241
143.455
142.679
141.803
140.819
139.93
138.786
138.113
139.863
134.152
132.977
131.978
130.952
130.2
128.99
129.099
126.867
)
;
    }
    symmetryWallLeft
    {
        type            cyclicAMI;
        value           nonuniform List<scalar> 
20
(
57.7362
66.8685
31.0334
-20.6519
-30.9124
-73.7993
-112.025
-98.487
-14.4708
26.9283
29.7376
-1.16754
-28.6466
-13.2935
19.8339
20.8893
54.3884
39.8206
-38.6439
-50.2986
)
;
    }
    inletOutletLeft
    {
        type            cyclicAMI;
        value           nonuniform List<scalar> 
20
(
126.867
129.099
128.99
130.2
130.952
131.978
132.977
134.152
139.863
138.113
138.786
139.93
140.819
141.803
142.679
143.455
144.241
145.347
148.968
145.472
)
;
    }
    inletLeft
    {
        type            zeroGradient;
    }
    inletWallsLeft
    {
        type            zeroGradient;
    }
    inletFacesLeft
    {
        type            zeroGradient;
    }
    fineWallsRight
    {
        type            zeroGradient;
    }
    outletWallRight
    {
        type            zeroGradient;
    }
    fineplugRight
    {
        type            cyclicAMI;
        value           nonuniform List<scalar> 
20
(
67.3886
68.508
68.0049
68.2596
68.6488
69.4657
70.4439
71.6675
76.0537
74.8626
76.2731
77.8851
79.4822
81.1257
82.7644
84.3183
85.978
86.1105
89.4931
84.3915
)
;
    }
    fineFrontAndBackRight
    {
        type            zeroGradient;
    }
    symmetryWallRight
    {
        type            cyclicAMI;
        value           nonuniform List<scalar> 
20
(
57.7362
66.8685
31.0334
-20.6519
-30.9124
-73.7993
-112.025
-98.487
-14.4708
26.9283
29.7376
-1.16754
-28.6466
-13.2935
19.8339
20.8893
54.3884
39.8206
-38.6439
-50.2986
)
;
    }
    inletOutletRight
    {
        type            cyclicAMI;
        value           nonuniform List<scalar> 
20
(
67.3886
68.508
68.0049
68.2596
68.6488
69.4657
70.4439
71.6675
76.0537
74.8626
76.2731
77.8851
79.4822
81.1257
82.7644
84.3183
85.978
86.1105
89.4931
84.3915
)
;
    }
    inletRight
    {
        type            zeroGradient;
    }
    inletWallsRight
    {
        type            zeroGradient;
    }
    inletFacesRight
    {
        type            zeroGradient;
    }
}


// ************************************************************************* //
