/*--------------------------------*- C++ -*----------------------------------*\
| =========                 |                                                 |
| \\      /  F ield         | OpenFOAM: The Open Source CFD Toolbox           |
|  \\    /   O peration     | Version:  4.1                                   |
|   \\  /    A nd           | Web:      www.OpenFOAM.org                      |
|    \\/     M anipulation  |                                                 |
\*---------------------------------------------------------------------------*/
FoamFile
{
    version     2.0;
    format      ascii;
    class       volScalarField;
    location    "5";
    object      p;
}
// * * * * * * * * * * * * * * * * * * * * * * * * * * * * * * * * * * * * * //

dimensions      [0 2 -2 0 0 0 0];

internalField   nonuniform List<scalar> 
1680
(
-9.57743
-6.26209
-2.49789
-3.85809
-5.23924
-2.85248
-3.89607
-5.22773
-2.69329
-4.19933
-4.91319
-4.36086
-5.31048
-3.02166
-4.84943
-6.19589
-4.8991
-8.48154
-0.895958
-12.285
-1.42074
-23.7503
-0.495285
-2.77886
-1.51479
-0.355302
0.419485
1.18858
2.66121
2.85245
5.71944
-19.8483
-2.38836
-2.50913
-1.82286
-1.59298
-0.636465
-1.23046
3.05685
-1.36719
-47.0999
-23.1656
-19.8801
-2.38612
-8.90596
-8.71108
-5.38544
2.12043
-1.55208
-1.21218
-0.56377
-0.501877
-0.428487
-0.382008
-0.897243
-0.770128
-0.682923
-0.604114
-0.765413
-0.616866
10.7094
8.38601
4.38384
4.50568
1.88564
3.41731
3.95023
3.69847
6.15204
1.27657
-13.0303
-10.3269
-4.50127
0.480859
7.11022
2.58124
-7.35969
10.22
5.13182
8.76064
7.71767
3.44848
4.29361
1.37609
3.10885
3.48786
2.99219
4.63481
-1.40365
-16.6486
-12.3396
-4.75312
-0.0978292
7.05253
1.71851
-5.05739
9.29626
0.674482
6.31559
7.20582
2.26505
3.96711
0.862197
2.85608
3.08441
2.32697
2.9658
-4.43167
-18.7972
-14.8987
-4.91249
-0.728073
5.7698
1.139
-3.90934
4.59445
0.339469
3.49603
6.83185
0.896158
3.59184
0.38248
2.63974
2.75859
1.74442
1.27506
-7.58142
-19.0283
-16.7678
-5.23886
-1.32939
4.03275
0.818064
-2.92197
0.817817
10.7688
0.401977
6.58568
-0.621003
3.20439
-0.0844852
2.43654
2.50588
1.33213
-0.320074
-10.7699
-18.3716
-17.3477
-5.56862
-1.92055
2.69387
0.496764
-2.39414
-0.670376
12.6248
-3.00042
6.45981
-2.26824
2.81738
-0.576648
2.23932
2.30124
1.2025
-1.60792
-13.905
-17.8974
-17.1621
-5.79457
-2.44247
1.47282
0.172543
-2.31945
-0.529397
0.608549
-6.7556
6.43571
-4.05267
2.42602
-1.12238
2.02191
2.08187
1.34749
-2.45631
-16.7773
-18.4937
-16.676
-6.02997
-2.90636
0.480594
-0.145946
-2.24538
-0.758676
-2.08245
-10.845
6.50001
-5.96578
2.04087
-1.69999
1.77795
1.7757
1.54447
-3.08284
-18.9486
-20.3824
-15.767
-6.3026
-3.32703
-0.345989
-0.456605
-2.19083
-1.12294
-2.04539
-15.4105
6.62709
-8.05724
1.63573
-2.32043
1.4741
1.29542
1.49055
-3.87262
-19.1322
-22.2673
-14.5018
-6.58414
-3.70833
-1.00965
-0.760079
-2.18947
-1.25503
-1.92396
-20.3069
6.81877
-10.2441
1.26443
-2.89533
1.19026
0.697475
1.12383
-4.90294
-17.5502
-23.2426
-13.5308
-6.83995
-4.04371
-1.54778
-1.04468
-2.20937
-1.57606
-2.0855
-26.1763
7.0101
-12.7533
0.79153
-3.56924
0.802214
-0.126855
0.444307
-5.91703
-16.0582
-23.3687
-12.6046
-7.03623
-4.32423
-1.99028
-1.32176
-2.25323
-1.75156
-2.16335
-31.8028
7.28503
-15.068
0.516315
-3.961
0.641721
-0.857397
-0.28548
-6.34228
-14.4421
-22.7081
-11.7292
-7.19653
-4.57114
-2.38238
-1.59957
-2.32049
-1.97679
-2.24465
-40.5356
7.40707
-18.4015
-0.255421
-4.91819
0.0223771
-2.02357
-1.28435
-5.98071
-12.2999
-20.842
-11.0066
-7.31553
-4.78917
-2.7373
-1.87901
-2.40466
-2.19094
-2.33772
-44.6167
7.86404
-19.8452
0.0457706
-4.62609
0.516402
-2.08776
-1.67991
-5.05872
-10.1586
-17.9904
-10.2813
-7.2656
-4.89418
-2.98158
-2.09928
-2.45902
-2.3282
-2.4035
-63.5652
7.61722
-26.1123
-2.19988
-7.45744
-1.20659
-3.60625
-2.22491
-4.20317
-8.98666
-15.5645
-9.85954
-7.32431
-5.10336
-3.25984
-2.34747
-2.55196
-2.50352
-2.47527
-50.3722
8.88993
-21.2097
1.09178
-3.71142
2.36384
-0.134927
-0.376471
-3.61681
-8.7265
-14.2744
-10.2558
-7.97645
-5.82654
-3.9099
-2.85947
-2.85454
-2.90337
-2.76743
-121.248
7.18453
-42.1904
-8.67786
-16.1578
-6.48447
-6.37409
-1.43818
-1.87106
-8.25264
-11.6505
-9.03321
-7.25611
-5.44819
-3.76563
-2.80512
-2.70011
-2.74904
-2.57889
7.87504
11.3964
-1.78015
10.8506
9.01424
12.625
8.6202
2.74263
-0.420712
-6.2921
-7.27226
-5.78337
-4.71287
-3.42748
-2.33777
-1.81444
-1.85127
-1.85995
-1.77589
-360.027
4.63276
-100.305
-36.1017
-53.1422
-32.7697
-21.7447
-3.55514
-0.44411
-8.94287
-14.2993
-13.8808
-11.9521
-9.5146
-6.88623
-5.23032
-4.5698
-4.84859
-4.28616
574.834
5.07461
145.252
71.7262
96.5504
70.3975
41.9481
6.87595
-1.00856
-12.1791
-22.3657
-22.8413
-20.1459
-16.5651
-12.2476
-9.22662
-7.65264
-8.20158
-7.22172
93.5779
92.8391
92.248
91.292
90.2666
89.2354
88.186
87.1218
86.0731
85.0508
84.0298
83.0992
82.0699
81.0233
80.0772
79.1981
78.4292
77.6333
77.1681
76.1415
74.188
74.6555
74.7675
74.9777
75.1008
75.1686
75.2146
75.2008
75.1708
75.0942
75.0027
74.888
74.7284
74.5616
74.3844
74.2123
74.0432
73.8897
73.7354
73.5759
80.6943
80.5422
80.4813
80.3548
80.2714
80.1458
80.043
79.9118
79.7929
79.6548
79.5232
79.3782
79.2391
79.0907
78.9422
78.7945
78.6463
78.4998
78.366
78.1797
77.4808
77.5489
77.5966
77.62
77.665
77.675
77.7045
77.7067
77.7202
77.7151
77.7151
77.7035
77.6932
77.6768
77.6591
77.6419
77.6182
77.6063
77.5713
77.5649
78.8784
78.81
78.8033
78.7406
78.7219
78.6663
78.6368
78.5852
78.5477
78.4971
78.4541
78.4026
78.3564
78.3035
78.2549
78.2027
78.1509
78.1042
78.0379
77.994
78.8494
78.7935
78.7912
78.7365
78.7204
78.6696
78.6405
78.5908
78.5515
78.5
78.4531
78.3974
78.3452
78.2835
78.2274
78.1601
78.0992
78.0309
77.9394
77.8727
79.8469
79.7527
79.7316
79.6534
79.6155
79.545
79.4948
79.4268
79.3675
79.2979
79.2315
79.1572
79.0854
79.0032
78.9278
78.8349
78.7572
78.6541
78.5433
78.4213
80.7129
80.6237
80.6023
80.5295
80.4926
80.4279
80.3809
80.319
80.2647
80.2021
80.1418
80.0754
80.0105
79.9367
79.8695
79.7831
79.718
79.6129
79.5363
79.3891
81.693
81.6112
81.5908
81.5256
81.4922
81.4363
81.3963
81.3448
81.3007
81.2509
81.2039
81.1534
81.1045
81.0505
81.0024
80.9387
80.8984
80.8128
80.7913
80.6579
82.5138
82.4465
82.43
82.3763
82.3499
82.3053
82.275
82.2357
82.2035
82.1677
82.135
82.1013
82.0691
82.0356
82.0064
81.9685
81.9494
81.8937
81.9067
81.8211
83.2278
83.1692
83.1544
83.1079
83.0852
83.0471
83.0217
82.9889
82.9628
82.9342
82.9086
82.8834
82.8592
82.8363
82.8158
82.7924
82.7805
82.7475
82.7617
82.7218
83.8329
83.7795
83.7653
83.7231
83.7021
83.6671
83.6435
83.6134
83.589
83.5627
83.5386
83.5156
83.4929
83.4723
83.4525
83.4327
83.4191
83.3955
83.3966
83.3769
84.3716
84.321
84.3067
84.2668
84.2463
84.2126
84.1894
84.1598
84.1353
84.109
84.0842
84.0606
84.0364
84.0147
83.9925
83.9711
83.9536
83.9293
83.9209
83.8984
84.8631
84.8151
84.8009
84.7631
84.7429
84.7103
84.6873
84.6581
84.6335
84.6071
84.5816
84.5574
84.5318
84.5091
84.4845
84.4615
84.4409
84.414
84.4018
84.3697
85.3215
85.2768
85.263
85.2275
85.2082
85.1772
85.155
85.1271
85.103
85.0773
85.0521
85.0281
85.0021
84.9796
84.9535
84.931
84.908
84.8807
84.8667
84.8289
85.7424
85.7014
85.688
85.6552
85.6377
85.6086
85.5882
85.5625
85.54
85.5163
85.4928
85.4705
85.446
85.4253
85.3995
85.3797
85.3552
85.3309
85.3154
85.2777
86.1377
86.1002
86.0856
86.0533
86.037
86.0086
85.9884
85.9641
85.942
85.9195
85.8972
85.8758
85.8532
85.8339
85.8095
85.7937
85.7681
85.7501
85.7343
85.7005
86.5372
86.5098
86.4985
86.466
86.453
86.4275
86.4078
86.3853
86.363
86.3401
86.3166
86.2928
86.2676
86.2438
86.2156
86.1954
86.1613
86.1462
86.1201
86.0825
86.8112
86.8021
86.8172
86.7966
86.7968
86.7894
86.7847
86.7795
86.7738
86.7674
86.7598
86.7503
86.7383
86.7235
86.7032
86.6823
86.6437
86.6224
86.5505
86.4936
86.7766
86.7183
86.7564
86.7671
86.7846
86.8023
86.8212
86.8419
86.8646
86.8896
86.9175
86.9485
86.9833
87.0221
87.0656
87.1146
87.1673
87.236
87.2773
87.4404
-0.572631
-0.568493
-0.651678
-0.671605
-0.705047
-0.707002
-0.725799
-0.762183
-0.839962
-0.850995
-0.922541
-1.00776
-0.362158
-3.01736
-4.74106
-4.80525
-2.2457
-13.9172
-14.993
-28.3625
-9.37131
-4.86885
-4.8213
-3.38582
-3.04141
-2.32837
-1.61783
-2.29888
-13.6193
4.0911
4.16629
5.39948
5.82898
6.34101
6.37119
6.17397
4.64041
0.404421
-23.2169
-10.2292
-22.9837
-8.134
-21.4318
-15.2132
-19.0562
-14.8147
-11.0379
-16.4734
-13.1499
-13.9585
-11.9427
-9.69294
-12.4513
-11.0529
-11.1644
-13.1812
-13.1178
-13.2995
-13.4134
-13.4138
13.5389
9.38511
7.23601
11.4494
13.6194
13.3475
12.4783
12.2806
11.9833
7.02957
8.14256
15.3668
26.5347
35.3425
38.0896
11.8509
-45.9273
-45.3017
-17.2342
13.4449
9.0343
6.82042
11.3377
13.578
13.4109
12.507
12.2735
11.997
6.43619
7.38801
14.7937
26.0311
34.6094
37.0824
10.1091
-49.249
-48.6793
-17.8073
13.2868
8.52156
6.1808
10.8147
13.329
13.518
12.6794
12.328
11.8401
5.1964
6.43235
14.011
24.9219
32.9829
35.1138
7.31968
-53.6144
-53.9071
-19.9064
13.1267
7.83942
5.46947
10.0462
12.7635
13.3151
12.7409
12.3256
11.6422
3.76933
5.15978
13.0296
23.4351
30.8281
32.7432
4.0144
-58.3915
-59.1505
-22.1305
13.0181
7.03986
4.72741
9.21011
11.959
12.8428
12.6682
12.2313
11.3552
2.34401
3.82904
12.165
21.8113
28.3796
30.2442
0.424526
-62.933
-64.0245
-24.4909
13.0298
6.24225
3.9866
8.41526
11.0142
12.2434
12.4644
12.0618
10.9807
1.28863
2.53392
11.5041
20.2751
25.6379
27.4987
-3.24918
-66.9975
-68.301
-27.291
13.2134
5.62151
3.34598
7.70642
10.0391
11.5935
12.1376
11.8201
10.5467
0.991781
1.44484
10.9429
18.8781
22.4548
24.3222
-6.8489
-70.0783
-71.5028
-29.569
13.5929
5.19974
2.79447
7.05665
9.11557
10.91
11.706
11.4982
10.0599
1.5363
0.846067
10.4635
17.52
18.9106
20.938
-9.87188
-71.9418
-72.964
-30.9169
14.2537
4.83442
2.36268
6.44581
8.2397
10.1826
11.1817
11.0912
9.52005
2.71915
0.812214
10.0928
16.1087
15.7069
18.0203
-11.8197
-72.2106
-72.5204
-31.2829
15.2556
4.67746
2.11768
5.83391
7.39397
9.40807
10.5784
10.6155
8.96022
4.11508
0.978488
9.78853
14.8837
13.8912
16.3583
-12.5353
-70.5758
-70.5117
-30.2517
16.601
4.92224
2.05052
5.26384
6.59502
8.60896
9.91881
10.1065
8.48843
5.38493
1.00286
9.56022
14.1118
13.5616
15.7992
-12.0534
-67.227
-67.0806
-29.2349
18.1662
5.49697
2.15929
4.77983
5.84518
7.80955
9.22667
9.59995
8.27865
6.1431
0.939016
9.27701
13.6304
13.6401
15.3386
-10.461
-62.257
-62.9163
-25.6705
19.4795
6.35785
2.43541
4.36046
5.13442
7.02411
8.51761
9.13056
8.67954
6.2067
0.951004
8.682
13.0943
13.2738
14.3101
-8.37729
-58.2613
-57.9095
-24.286
20.0092
7.48066
2.8676
4.00977
4.46092
6.25789
7.79331
8.73391
10.2294
5.91602
1.03144
7.66467
12.3078
12.4092
12.9008
-6.3183
-55.3443
-53.1568
-22.5078
19.9523
8.61251
3.43588
3.76105
3.82762
5.51506
7.07074
8.32353
12.0168
5.72908
1.04393
6.41618
11.1938
11.2303
11.5509
-4.09713
-46.4412
-44.9674
-18.2397
19.4157
9.47597
4.06614
3.66639
3.28087
4.8519
6.41382
7.71037
12.3897
5.68155
0.722144
4.7335
9.41131
9.61371
10.3537
-2.03606
-33.5487
-26.4301
0.397192
18.401
9.88445
4.65293
3.78436
2.90791
4.38876
5.89802
6.86452
11.298
5.60377
-0.313406
2.03953
6.48518
7.10378
9.04281
-0.601769
-22.6669
-8.52996
4.58569
16.8585
9.89041
5.08697
4.06937
2.7196
4.16202
5.47486
5.99906
9.85212
5.34115
-2.29601
-1.83707
2.39959
3.82678
7.46277
0.197019
-15.5073
3.27061
2.91646
14.963
9.59229
5.22817
4.37037
2.5725
3.99504
5.00045
5.20041
8.5846
4.66821
-5.25625
-6.11162
-1.5441
1.46943
6.48396
1.07524
-13.1106
8.46702
5.37212
12.8354
9.08887
4.99599
4.53805
2.30629
3.73982
4.46601
4.43789
7.43
3.34167
-9.01953
-8.94735
-3.7745
0.814366
6.67784
2.43531
-10.6017
8.7253
5.75172
692.662
609.443
559.939
503.318
453.972
406.373
362.135
320.384
281.139
244.134
209.222
176.216
144.899
115.19
87.1374
59.9765
34.3339
14.8565
-8.15947
-45.1105
-5.8641
-28.7362
-20.9449
-32.3444
-35.4966
-42.4792
-47.7894
-53.3632
-58.2087
-62.5113
-66.0458
-68.7671
-70.5857
-71.4188
-71.1954
-69.9063
-67.5133
-64.694
-62.16
-59.0552
-22.5682
-28.5595
-19.9033
-26.1444
-23.5859
-26.2362
-26.862
-28.6665
-30.184
-31.9515
-33.7095
-35.5195
-37.3193
-39.038
-40.5784
-41.5896
-41.7124
-40.1581
-38.3539
-35.0566
3.29687
1.23382
4.88756
-0.145106
2.27697
-0.518539
-0.243667
-1.37124
-1.6704
-2.12527
-2.37721
-2.60291
-2.72501
-2.70069
-2.45722
-1.72536
-0.358873
2.01653
4.41526
7.24093
6.10744
5.47631
8.40876
6.0731
9.6224
8.61602
10.9388
11.5249
13.1862
14.4242
15.8596
17.223
18.6328
19.9636
21.0566
21.6379
21.6285
20.964
21.0561
21.3355
19.1654
16.8631
19.0044
16.2888
18.7018
16.9404
18.3073
17.5708
17.9353
17.4336
16.9147
15.8235
14.3709
12.3672
9.73456
6.46394
3.19934
1.20499
-0.159342
-4.0389
-24.2899
-29.9868
-30.2104
-35.3742
-36.6649
-41.3549
-43.8251
-48.1295
-51.4613
-55.4078
-58.6409
-61.5751
-63.807
-65.4751
-66.4491
-67.0628
-67.7514
-68.2955
-69.2869
-70.4196
-68.6408
-73.5278
-73.1601
-76.8315
-77.1726
-80.359
-81.4538
-84.0543
-85.6408
-87.6108
-88.9523
-90.0624
-90.844
-91.4329
-91.7871
-92.2254
-93.029
-92.8899
-91.916
-88.8545
-70.383
-71.3783
-69.4673
-70.8325
-69.1353
-70.0526
-69.0995
-69.4232
-69.1023
-69.1643
-69.05
-68.874
-68.5055
-67.8633
-66.8246
-65.1924
-63.0944
-60.1256
-57.8863
-54.7043
-43.1341
-41.5282
-39.3053
-39.0093
-36.6186
-35.9413
-34.007
-32.7643
-31.1257
-29.5885
-27.9641
-26.2868
-24.5591
-22.7606
-20.9229
-19.0288
-17.1637
-15.3943
-13.9451
-12.1162
-21.2984
-19.643
-18.1372
-17.6082
-15.8954
-15.2674
-13.8248
-12.8841
-11.691
-10.624
-9.54555
-8.50454
-7.51683
-6.57748
-5.72754
-4.94013
-4.28442
-3.6761
-3.32044
-2.90486
-9.46956
-8.51445
-7.70944
-7.40701
-6.42455
-6.1718
-5.32595
-4.92462
-4.28581
-3.8192
-3.32334
-2.89057
-2.50181
-2.14769
-1.86693
-1.5982
-1.43504
-1.23253
-1.19346
-1.03246
-3.97288
-3.55797
-3.15205
-3.08836
-2.54799
-2.56066
-2.08476
-2.02146
-1.69514
-1.56391
-1.35386
-1.20834
-1.07157
-0.939627
-0.858121
-0.736604
-0.709267
-0.574301
-0.600916
-0.422056
-1.36614
-1.16205
-0.864357
-0.906499
-0.518772
-0.622435
-0.274558
-0.321176
-0.083484
-0.0445992
0.10824
0.203338
0.31648
0.445632
0.540854
0.706603
0.778924
1.00658
1.03469
1.36582
0.827019
1.1211
1.47644
1.48768
1.92536
1.88641
2.28458
2.30346
2.60303
2.71937
2.95257
3.14311
3.36055
3.60406
3.82599
4.1234
4.33187
4.71041
4.84834
5.36461
5.37285
5.78606
6.14113
6.21507
6.69856
6.74628
7.1944
7.30914
7.66538
7.87758
8.18127
8.46254
8.76396
9.09285
9.4048
9.78135
10.0779
10.5231
10.7442
11.2899
9.75328
10.3951
10.6883
10.8826
11.3929
11.5802
12.0769
12.327
12.7444
13.0678
13.4425
13.8088
14.18
14.5729
14.9429
15.3656
15.7053
16.1807
16.4314
16.9942
19.6412
20.1095
20.1125
20.1619
20.4028
20.4729
20.7403
20.8783
21.1133
21.3127
21.5405
21.7763
22.0166
22.2819
22.529
22.8328
23.0626
23.4354
23.5938
24.0905
21.1768
22.2901
22.2333
22.5598
22.8464
23.1215
23.4668
23.7522
24.0609
24.3484
24.6329
24.9247
25.199
25.4923
25.7748
26.1155
26.3906
26.8132
27.0262
27.5752
48.3018
48.5162
47.8831
47.1734
46.0529
44.8844
43.7234
42.5893
41.5327
40.5575
39.6763
38.8428
38.005
37.3961
36.856
36.419
36.0251
35.7561
35.5102
35.2768
)
;

boundaryField
{
    outletWallLeft
    {
        type            fixedValue;
        value           uniform 0;
    }
    fineWallsLeft
    {
        type            zeroGradient;
    }
    fineFrontAndBackLeft
    {
        type            zeroGradient;
    }
    fineplugLeft
    {
        type            cyclicAMI;
        value           nonuniform List<scalar> 
20
(
74.5782
79.2964
73.6993
72.4779
71.9104
71.3172
70.6327
69.9351
69.3907
68.6111
68.3677
71.1411
65.1782
64.3168
63.6972
63.0399
62.6161
61.8605
62.3458
60.6397
)
;
    }
    symmetryWallLeft
    {
        type            cyclicAMI;
        value           nonuniform List<scalar> 
20
(
-0.594748
5.44177
9.47264
-8.98071
2.50828
6.89403
0.647612
-4.13789
-9.63712
-11.0249
2.30912
6.79102
4.06818
4.20812
3.57857
2.09597
4.52186
4.68992
8.73744
11.7724
)
;
    }
    inletOutletLeft
    {
        type            cyclicAMI;
        value           nonuniform List<scalar> 
20
(
60.6397
62.3458
61.8605
62.6161
63.0399
63.6972
64.3168
65.1782
71.1411
68.3677
68.6111
69.3907
69.9351
70.6327
71.3172
71.9104
72.4779
73.6993
79.2964
74.5782
)
;
    }
    inletLeft
    {
        type            zeroGradient;
    }
    inletWallsLeft
    {
        type            zeroGradient;
    }
    inletFacesLeft
    {
        type            zeroGradient;
    }
    fineWallsRight
    {
        type            zeroGradient;
    }
    outletWallRight
    {
        type            zeroGradient;
    }
    fineplugRight
    {
        type            cyclicAMI;
        value           nonuniform List<scalar> 
20
(
26.3472
27.4344
27.6406
28.1429
28.5269
29.0191
29.5933
29.9443
32.749
32.5592
33.2793
34.3061
35.2373
36.2469
37.1818
38.0771
38.6668
38.3874
40.1839
36.5956
)
;
    }
    fineFrontAndBackRight
    {
        type            zeroGradient;
    }
    symmetryWallRight
    {
        type            cyclicAMI;
        value           nonuniform List<scalar> 
20
(
-0.594748
5.44177
9.47264
-8.98071
2.50828
6.89403
0.647612
-4.13789
-9.63712
-11.0249
2.30912
6.79102
4.06818
4.20812
3.57857
2.09597
4.52186
4.68992
8.73744
11.7724
)
;
    }
    inletOutletRight
    {
        type            cyclicAMI;
        value           nonuniform List<scalar> 
20
(
26.3472
27.4344
27.6406
28.1429
28.5269
29.0191
29.5933
29.9443
32.749
32.5592
33.2793
34.3061
35.2373
36.2469
37.1818
38.0771
38.6668
38.3874
40.1839
36.5956
)
;
    }
    inletRight
    {
        type            zeroGradient;
    }
    inletWallsRight
    {
        type            zeroGradient;
    }
    inletFacesRight
    {
        type            zeroGradient;
    }
}


// ************************************************************************* //
