/*--------------------------------*- C++ -*----------------------------------*\
| =========                 |                                                 |
| \\      /  F ield         | OpenFOAM: The Open Source CFD Toolbox           |
|  \\    /   O peration     | Version:  4.1                                   |
|   \\  /    A nd           | Web:      www.OpenFOAM.org                      |
|    \\/     M anipulation  |                                                 |
\*---------------------------------------------------------------------------*/
FoamFile
{
    version     2.0;
    format      ascii;
    class       surfaceScalarField;
    location    "5";
    object      phi;
}
// * * * * * * * * * * * * * * * * * * * * * * * * * * * * * * * * * * * * * //

dimensions      [0 3 -1 0 0 0 0];

internalField   nonuniform List<scalar> 
3120
(
5804.73
-60.3629
5804.73
5769.68
35.0453
5769.68
5828.48
-58.7938
5886.81
-58.3328
5886.81
6006.15
-119.343
6133.12
-126.974
6133.12
6329.27
-196.152
6329.27
6585.85
-256.577
6884.16
-298.313
6884.16
7273.62
-389.462
7273.62
7899.15
-625.531
8044.32
-145.166
8044.32
8742.99
10689.1
-958.72
11638.9
12587.9
13544.3
14506.7
15475.2
16449.1
17428.3
18412.3
19402.5
16982.4
3409.6
17993.9
19012.8
20037.3
21067
22103
23172
24301.5
25093.4
18599.8
6493.62
18599.8
18599.8
11245.2
7354.63
11245.2
11245.2
11245.2
3873.05
7372.15
3873.04
3873.04
-368.907
4241.94
-368.932
-368.957
-368.969
-1094.39
725.421
-1094.4
-1094.41
-1094.42
-846.858
-247.565
-976.719
13154.7
-2572.16
8327.07
-3966.03
6232.49
-4610.89
5873.67
-4608.96
6725.23
-3756.23
6059.71
-2584.01
5119.22
-2322.57
5536.33
-3600.74
7881.07
-5576.94
10330.6
-6037.9
9604.22
-3733.86
415.276
-1429.19
-8787.81
-936.727
-11019.8
-2836.69
-8699.6
-6583.76
-7750.05
-7696.41
-11940.8
-4566.79
-11349.2
-7427.18
-767.48
13827.8
-2018.03
9577.61
-3372.26
7586.73
-3991.34
6492.75
-3908.69
6642.57
-3102.77
5253.79
-2326.46
4342.9
-2508.12
5717.99
-3797.32
9170.27
-5423.86
11957.1
-5146.94
9327.29
-2693.06
-2038.61
-1038.02
-10442.8
-762.286
-11295.5
-1803.33
-7658.56
-5144.36
-4409.02
-7803.63
-9281.48
-6588.41
-12564.4
-13290.2
-626.608
14388.6
-1547.39
10498.4
-2799.2
8838.54
-3402.67
7096.22
-3372.25
6612.16
-2846.94
4728.47
-2515.11
4011.07
-2860.6
6063.48
-3923.38
10233
-5135.89
13169.6
-4241.13
8432.53
-1861.75
-4417.99
-731.005
-11573.6
-589.212
-11437.3
-545.468
-7702.3
-2320.04
-2634.45
-5707.64
-5893.88
-7293.76
-10978.3
-16342
-540.372
14893.6
-1179.64
11137.7
-2296.36
9955.25
-2899.43
7699.29
-3040.58
6753.31
-2927.14
4615.02
-2953.1
4037.04
-3252.07
6362.45
-4010.3
10991.3
-4807.49
13966.8
-3467.29
7092.32
-1261.76
-6623.52
-472.779
-12362.6
-402.267
-11507.8
-7.41999
-8097.15
100.936
-2742.81
-2364.11
-3428.84
-6325.56
-7016.87
-15295.4
-492.749
15382.2
-911.113
11556
-1886.77
10930.9
-2484.33
8296.86
-2830.84
7099.82
-3143.56
4927.74
-3504.53
4398.01
-3767.52
6625.44
-4230.76
11454.5
-4531.5
14267.6
-2716.18
5277
-744.343
-8595.36
-287.041
-12819.9
-250.928
-11543.9
-194.595
-8153.48
309.931
-3247.33
-317.718
-2801.19
-3802
-3532.59
-11742.8
-469.625
15880.1
-726.855
11813.3
-1575.15
11779.2
-2142.04
8863.75
-2626.5
7584.28
-3275.06
5576.3
-4036.47
5159.42
-4469.39
7058.36
-4703.7
11688.8
-4337.7
13901.6
-2042.19
2981.5
-308.588
-10329
-117.174
-13011.3
-155.506
-11505.6
-254.609
-8054.38
-103.78
-3398.16
25.4933
-2930.46
-1526.04
-1981.06
-6775.2
-465.358
16407.2
-609.607
11957.5
-1354.74
12524.3
-1865.59
9374.6
-2371.42
8090.11
-3157.08
6361.96
-4286.33
6288.68
-5086.45
7858.48
-5204.92
11807.3
-4047.76
12744.4
-1462.85
396.579
-17.4674
-11774.3
49.109
-13077.9
-129.493
-11327
-359.783
-7824.09
-212.847
-3545.1
-192.331
-2950.98
161.504
-2334.89
-3204.09
-486.391
16989.4
-543.682
12014.8
-1212.22
13192.9
-1656.73
9819.11
-2091.99
8525.37
-2778.3
7048.26
-4044.41
7554.78
-5198.42
9012.49
-5302.29
11911.2
-3335.27
10777.4
-758.964
-2179.73
202.18
-12735.5
178.222
-13053.9
-165.236
-10983.5
-472.523
-7516.8
-334.719
-3682.9
-187.005
-3098.7
615.972
-3137.87
-3546.84
-542.62
17662.7
-514.793
11987
-1131.85
13809.9
-1513.72
10201
-1842.11
8853.76
-2264.68
7470.83
-3357.3
8647.4
-4653.74
10308.9
-4820.9
12078.3
-2448.82
8405.3
-97.6142
-4530.93
413.62
-13246.7
242.754
-12883
-247.526
-10493.3
-570.285
-7194.05
-397.49
-3855.7
-196.459
-3299.73
157.896
-3492.23
-3534.1
-630.793
18458
-509.02
11865.2
-1098.16
14399.1
-1425.73
10528.6
-1645.09
9073.12
-1752.22
7577.96
-2448.97
9344.15
-3622.67
11482.6
-3929.45
12385.1
-1819.19
6295.04
215.601
-6565.72
564.284
-13595.4
226.651
-12545.4
-352.413
-9914.2
-633.173
-6913.29
-425.572
-4063.3
-200.637
-3524.66
254.521
-3947.38
-3905.11
-734.656
19394.2
-516.7
11647.2
-1097.38
14979.8
-1376.48
10807.7
-1489.24
9185.88
-1308.26
7396.99
-1556.05
9591.94
-2419.56
12346.1
-2849.21
12814.7
-1125.13
4570.96
537.043
-8227.89
635.989
-13694.4
129.266
-12038.7
-451.835
-9333.1
-653.06
-6712.06
-426.422
-4289.94
-195.404
-3755.68
111.407
-4254.19
-4183.17
-828.121
20454
-530.892
11350
-1114.55
15563.4
-1355.04
11048.1
-1385.83
9216.67
-999.771
7010.93
-882.464
9474.63
-1353.34
12817
-1784.37
13245.8
-381.128
3167.72
917.703
-9526.72
664.443
-13441.1
-11.8546
-11362.4
-519.244
-8825.71
-636.556
-6594.75
-411.839
-4514.65
-184.206
-3983.31
91.5705
-4529.97
-4389.91
-916.176
21649
-561.898
10995.7
-1138.81
16140.3
-1377.57
11286.9
-1466.1
9305.2
-1085.52
6630.36
-741.716
9130.83
-775.553
12850.9
-971.94
13442.1
217.188
1978.59
1176.55
-10486.1
634.608
-12899.2
-142.484
-10585.3
-538.775
-8429.42
-597.107
-6536.42
-386.74
-4725.02
-165.586
-4204.47
85.0417
-4780.6
-4561.44
-966.916
22905.7
-597.762
10626.6
-1157.2
16699.8
-1470.87
11600.6
-1896.66
9730.98
-1886.33
6620.02
-1477.4
8721.89
-1055.11
12428.6
-688
13075
552.124
738.461
1198.4
-11132.4
492.995
-12193.8
-237.288
-9855.01
-517.187
-8149.52
-546.634
-6506.97
-353.397
-4918.26
-143.13
-4414.74
42.7934
-4966.52
-4714.8
-1093.71
24387.3
-702.137
10235
-1173.87
17171.5
-1604.92
12031.6
-2544.95
10671
-3228.37
7303.45
-3037.56
8531.09
-2233.98
11625
-902.104
11743.2
738.391
-902.035
1043.12
-11437.1
264.887
-11415.5
-290.814
-9299.3
-474.311
-7966.02
-491.515
-6489.77
-314.218
-5095.55
-118.779
-4610.17
32.799
-5118.1
-4808.98
-1091.23
25769.3
-764.6
9908.38
-1197.86
17604.8
-1700.66
12534.4
-2967.24
11937.6
-4259.56
8595.77
-4466.98
8738.5
-3429.55
10587.6
-863.309
9176.93
1167.06
-2932.41
867.976
-11138
66.3241
-10613.9
-295.649
-8937.33
-421.459
-7840.21
-430.878
-6480.35
-270.079
-5256.35
-93.6929
-4786.56
31.858
-5243.65
-4896.46
-1405.32
27823.6
-1034.33
9537.39
-1102.14
17672.6
-1577.17
13009.4
-2871.49
13231.9
-4560.12
10284.4
-5201.08
9379.46
-3951.38
9337.85
-551.006
5776.56
1466.67
-4950.09
707.311
-10378.6
-33.5651
-9872.99
-263.329
-8707.57
-360.53
-7743.01
-362.384
-6478.49
-220.912
-5397.82
-71.0558
-4936.42
6.47552
-5321.18
-4948.32
-1710.59
29493.8
-1251.96
9078.76
-1637.26
18057.9
-1985.29
13357.5
-2953.71
14200.3
-4322.23
11652.9
-4794.14
9851.37
-3376.35
7920.06
-278.919
2679.13
1169.21
-6398.22
454.034
-9663.46
-73.1961
-9345.76
-229.267
-8551.5
-304.448
-7667.83
-298.761
-6484.18
-174.506
-5522.08
-52.8249
-5058.1
-0.722116
-5373.28
-5007.84
576.654
30634.8
-491.957
10147.4
891.218
16674.7
253.199
13995.5
-692.399
15145.9
-2607.18
13567.7
-3895.74
11139.9
-2632.68
6657
102.121
-55.6712
746.773
-7042.87
197.57
-9114.26
-90.0422
-9058.14
-193.492
-8448.05
-249.087
-7612.24
-236.054
-6497.21
-132.531
-5625.6
-32.1441
-5158.48
-30.0665
-5375.36
-5002.86
-16542.8
-7414.43
-10430.2
-8257.67
-8179.7
-6862.81
-4657.51
-791.134
1065.68
312.711
28.6275
-48.0641
-82.748
-107.289
-95.3815
-53.3859
-1.94033
3.68865
20.1445
-718.817
84.3416
-1051.56
134.316
-999.844
175.684
-990.291
209.602
-990.341
236.679
-989.492
258.121
-989.976
274.175
-989.943
285.744
-990.749
293.303
-991.545
295.72
-992.648
296.38
-990.1
278.103
-993.298
255.71
-996.514
230.697
-999.465
203.01
-1002
173.624
-1006.6
151.331
-1046.7
124.716
-1102.86
-667.263
6.57031
-725.387
16.2997
-1061.29
19.1744
-1002.72
24.599
-995.715
31.4128
-997.155
38.3612
-996.44
45.5555
-997.17
52.4539
-996.841
59.0747
-997.369
64.8065
-997.276
69.9435
-997.785
78.8322
-998.989
84.4707
-998.936
87.2396
-999.283
87.7266
-999.952
85.2738
-999.55
81.4151
-1002.74
77.9682
-1043.25
56.5421
-1081.43
-610.721
-4.22379
-721.163
-1.1493
-1064.36
6.41478
-1010.28
11.5228
-1000.82
16.4954
-1002.13
21.3245
-1001.27
25.9012
-1001.75
30.2671
-1001.21
34.3131
-1001.42
38.1785
-1001.14
41.5949
-1001.2
43.4826
-1000.88
45.6388
-1001.09
47.5857
-1001.23
48.7884
-1001.15
49.1226
-999.884
50.9039
-1004.52
57.0361
-1049.38
44.5624
-1068.96
-566.159
0.966432
-722.129
3.29229
-1066.69
6.11583
-1013.11
7.77517
-1002.48
9.56331
-1003.91
11.5728
-1003.28
13.6545
-1003.83
15.8976
-1003.45
18.209
-1003.73
20.5985
-1003.53
23.0476
-1003.65
25.7915
-1003.62
28.3061
-1003.61
30.6725
-1003.6
32.7136
-1003.2
34.5448
-1001.72
38.6249
-1008.6
46.4443
-1057.2
35.7533
-1058.27
-530.405
3.89325
-726.022
4.43144
-1067.23
5.26648
-1013.94
5.35837
-1002.57
5.54568
-1004.1
5.93807
-1003.67
6.42545
-1004.31
7.12656
-1004.15
7.97075
-1004.57
9.02908
-1004.59
10.264
-1004.88
11.6432
-1005
13.2564
-1005.22
15.0965
-1005.44
17.0031
-1005.1
19.2848
-1004
23.6036
-1012.92
30.9123
-1064.51
22.9074
-1050.26
-507.498
6.35265
-732.374
5.2498
-1066.12
3.9184
-1012.61
2.56723
-1001.22
1.28266
-1002.82
0.228087
-1002.62
-0.725853
-1003.36
-1.46498
-1003.41
-2.05669
-1003.98
-2.44398
-1004.2
-2.64157
-1004.69
-2.6116
-1005.03
-2.37101
-1005.46
-1.88618
-1005.92
-1.18169
-1005.81
-0.00898636
-1005.17
1.97109
-1014.9
5.25755
-1067.8
1.34855
-1046.36
-506.149
7.65863
-740.033
4.6219
-1063.09
1.74606
-1009.73
-0.992988
-998.483
-3.70426
-1000.11
-6.22487
-1000.09
-8.6883
-1000.9
-10.9942
-1001.1
-13.2073
-1001.76
-15.277
-1002.13
-17.2225
-1002.74
-19.0303
-1003.22
-20.6767
-1003.81
-22.1581
-1004.44
-23.3643
-1004.6
-24.2606
-1004.27
-26.4079
-1012.75
-30.0529
-1064.15
-26.7606
-1049.65
-532.91
8.95883
-748.992
4.81242
-1058.94
1.12253
-1006.04
-2.42302
-994.937
-6.03733
-996.491
-9.54445
-996.588
-13.0822
-997.359
-16.5642
-997.623
-20.0517
-998.278
-23.5063
-998.677
-26.948
-999.3
-30.3725
-999.796
-33.7642
-1000.42
-37.1477
-1001.06
-40.3062
-1001.44
-43.3103
-1001.27
-49.5299
-1006.53
-61.9143
-1051.77
-52.2966
-1059.27
-585.207
11.2443
-760.236
6.68752
-1054.38
2.68761
-1002.04
-0.928121
-991.321
-4.67988
-992.739
-8.40499
-992.862
-12.2235
-993.54
-16.0648
-993.781
-19.9856
-994.357
-23.9553
-994.707
-27.9985
-995.256
-32.1181
-995.677
-36.3036
-996.236
-40.6063
-996.753
-44.8142
-997.234
-48.875
-997.208
-56.2779
-999.127
-74.6418
-1033.41
-66.7438
-1067.16
-651.95
14.3661
-774.602
9.67122
-1049.69
5.6596
-998.031
2.52619
-988.188
-0.76453
-989.449
-4.06874
-989.558
-7.48015
-990.129
-10.9395
-990.322
-14.4971
-990.799
-18.1248
-991.079
-21.8488
-991.532
-25.6687
-991.857
-29.5821
-992.323
-33.6401
-992.695
-37.7157
-993.158
-41.6371
-993.287
-47.3131
-993.451
-65.4023
-1015.32
-66.4266
-1066.14
-718.377
17.3437
-791.946
12.3744
-1044.72
8.5299
-994.187
6.01646
-985.675
3.36786
-986.8
0.697789
-986.888
-2.05721
-987.374
-4.84548
-987.534
-7.71077
-987.934
-10.6238
-988.166
-13.6104
-988.546
-16.6611
-988.806
-19.7806
-989.203
-22.9952
-989.48
-26.2554
-989.898
-29.4407
-990.101
-32.9426
-989.95
-45.8617
-1002.4
-54.8554
-1057.15
-773.232
19.3274
-811.274
13.8907
-1039.28
10.3373
-990.634
8.33476
-983.672
6.21723
-984.683
4.08464
-984.756
1.89362
-985.183
-0.308025
-985.332
-2.56007
-985.682
-4.83102
-985.895
-7.14609
-986.231
-9.48837
-986.464
-11.8668
-986.825
-14.2859
-987.061
-16.7277
-987.456
-19.1605
-987.669
-21.4658
-987.644
-28.8743
-994.988
-40.1863
-1045.83
-813.419
20.1907
-831.464
14.2044
-1033.3
11.0056
-987.435
9.34391
-982.011
7.57194
-982.911
5.79403
-982.978
3.97405
-983.363
2.15773
-983.516
0.307471
-983.832
-1.54431
-984.044
-3.42276
-984.352
-5.30761
-984.579
-7.20909
-984.923
-9.1256
-985.145
-11.0425
-985.539
-12.963
-985.748
-14.7646
-985.843
-19.0668
-990.686
-28.9913
-1035.91
-842.41
20.3132
-851.778
13.7785
-1026.76
10.9374
-984.594
9.47909
-980.553
7.91098
-981.343
6.34371
-981.411
4.74173
-981.761
3.14874
-981.923
1.52849
-982.212
-0.0869383
-982.429
-1.72287
-982.717
-3.35746
-982.945
-5.00347
-983.278
-6.65724
-983.491
-8.30291
-983.894
-9.96283
-984.089
-11.5106
-984.295
-14.5685
-987.629
-22.9204
-1027.56
-865.33
20.1446
-871.922
13.0615
-1019.68
10.5528
-982.085
9.21618
-979.216
7.77233
-979.899
6.33369
-979.972
4.86192
-980.29
3.40049
-980.462
1.91391
-980.725
0.432221
-980.947
-1.0687
-981.216
-2.56598
-981.448
-4.07816
-981.766
-5.5929
-981.976
-7.10359
-982.383
-8.63911
-982.553
-10.058
-982.876
-12.5853
-985.101
-20.4004
-1019.74
-885.731
19.9695
-891.892
12.3091
-1012.02
10.1127
-979.889
8.86516
-977.969
7.51311
-978.547
6.16979
-978.629
4.78931
-978.91
3.41726
-979.09
2.02023
-979.329
0.623605
-979.551
-0.792104
-979.8
-2.20508
-980.035
-3.63886
-980.332
-5.06688
-980.549
-6.50453
-980.946
-7.96018
-981.098
-9.31096
-981.525
-11.5313
-982.881
-19.5083
-1011.77
-905.239
19.9201
-911.812
11.6355
-1003.74
9.76229
-978.016
8.61801
-976.825
7.36463
-977.294
6.12428
-977.389
4.83782
-977.623
3.55195
-977.804
2.23866
-978.015
0.915288
-978.227
-0.430369
-978.455
-1.78175
-978.684
-3.16252
-978.951
-4.53511
-979.176
-5.94183
-979.539
-7.34681
-979.693
-8.68203
-980.19
-10.6869
-980.876
-19.0818
-1003.37
-924.321
20.0949
-931.907
11.1089
-994.75
9.5959
-976.503
8.61098
-975.84
7.48915
-976.172
6.37714
-976.277
5.20802
-976.454
4.02224
-976.619
2.80378
-976.797
1.56172
-976.985
0.292368
-977.185
-0.99486
-977.396
-2.31689
-977.629
-3.6388
-977.854
-5.02051
-978.158
-6.38015
-978.333
-7.76015
-978.81
-9.60008
-979.036
-18.4277
-994.543
-942.749
20.8041
-952.712
11.0712
-985.017
9.96624
-975.398
9.25327
-975.127
8.35895
-975.278
7.43367
-975.352
6.4254
-975.446
5.35391
-975.547
4.21467
-975.658
3.01039
-975.781
1.74295
-975.918
0.418186
-976.072
-0.966266
-976.245
-2.38405
-976.436
-3.87348
-976.668
-5.32743
-976.879
-6.87817
-977.26
-8.53073
-977.384
-17.5634
-985.51
-960.312
22.2885
12.2714
11.8729
11.746
11.4678
11.1159
10.67
10.1228
9.46495
8.6839
7.76584
6.69416
5.44922
4.01278
2.3446
0.46541
-1.7942
-4.17797
-14.6881
-846.888
445.205
-1292.1
445.188
445.168
445.159
646.401
-201.252
646.392
646.381
646.379
-804.479
1450.85
-804.482
-804.489
-7000.69
6196.21
-7000.69
-7000.69
-7000.69
-14929.2
7928.54
-14929.2
-14929.2
-22676.2
7746.97
-22185.9
-21498.6
-20775
-20019.5
-19242.9
-18446.4
-17630.5
-16793.1
-21810.9
5868.36
-20926.8
-20004.4
-19034.3
-18003.9
-16898.1
-15696.9
-14375.3
-12913.1
-11338
-10420
596.793
-9641.34
-9641.34
-10539.8
898.424
-10562.6
22.8688
-10562.6
-10297.7
-264.951
-10297.7
-9654.27
-643.408
-8606.98
-1047.3
-8606.98
-7248.87
-1358.1
-7248.87
-5579.74
-1669.13
-3661.77
-1917.97
-3661.76
-1493.84
-2167.91
333.202
-1827.02
333.224
794.908
-461.67
794.92
794.921
1235.63
-1235.63
1653.25
-417.624
742.902
910.342
-465.297
1208.2
-719.112
253.811
-402.361
-316.755
-588.412
186.047
-1297.25
708.836
-2567.6
1270.35
-4326.94
1759.34
-5031.82
704.88
-4191.29
-840.536
-2463.3
-1727.98
-364.102
-2099.2
2697.43
-3061.53
6004.46
-3307.03
6081.61
-77.1527
2100.99
3980.62
2895.92
1169.86
-2405.49
1730.24
-978.006
1386.18
1254.4
35.3773
2559
-1462.95
1752.14
-2104.86
325.155
-2573.83
655.018
-3423.92
1558.92
-4643.91
2490.34
-5758.47
2873.89
-5680.76
627.169
-4536.64
-1984.65
-2820.35
-3444.28
-688.894
-4230.65
2227.82
-5978.24
5221.2
-6300.41
6432.6
-1288.55
4225.16
6188.07
6659.41
1101.62
-3507.12
1552.7
-1429.08
1383.3
1423.8
557.018
3385.27
-1224.87
3534.03
-2575.33
1675.61
-3235.72
1315.41
-3996.99
2320.19
-4963.36
3456.71
-5787.62
3698.14
-5546.91
386.461
-4304.46
-3227.11
-2717.85
-5030.88
-976.533
-5971.97
1502.92
-8457.7
4220.9
-9018.39
5676.99
-2744.64
4683.55
7181.52
9515.93
1000.66
-4507.77
1393.17
-1821.6
1201.43
1615.54
776.706
3809.99
-709.937
5020.67
-2352.46
3318.13
-3142.48
2105.43
-3803.88
2981.59
-4699.24
4352.07
-5437.81
4436.71
-4947.1
-104.248
-3640.08
-4534.13
-2580.98
-6089.98
-1513.18
-7039.77
529.279
-10500.2
3147.43
-11636.5
4682.35
-4279.56
4334.84
7529.03
11682.9
858.031
-5365.81
1204.91
-2168.48
966.814
1853.63
721.111
4055.7
-274.249
6016.03
-1846.49
4890.37
-2791.47
3050.41
-3410.91
3601.04
-4262.97
5204.13
-4803.57
4977.31
-4022.34
-885.476
-2961.12
-5595.35
-2759.33
-6291.77
-2336.89
-7462.21
-531.207
-12305.8
2106.66
-14274.4
3690.16
-5863.06
3659.57
7559.62
13424.5
664.931
-6030.74
954.212
-2457.77
709.103
2098.74
502.056
4262.74
-44.226
6562.31
-1315.17
6161.31
-2392.64
4127.88
-3049.98
4258.37
-3814.19
5968.34
-4039.42
5202.54
-3122.43
-1802.47
-2690.24
-6027.55
-3354.12
-5627.9
-3245.71
-7570.62
-1494.67
-14056.9
1090.77
-16859.8
2669.85
-7442.14
2837.13
7392.35
14592.5
422.424
-6453.16
653.277
-2688.62
456.068
2295.95
252.079
4466.73
-5.61361
6820
-910.533
7066.23
-2025.37
5242.71
-2781.55
5014.56
-3433.39
6620.17
-3299.81
5068.97
-2409.58
-2692.7
-2799.04
-5638.09
-4050.35
-4376.58
-3885.45
-7735.53
-2210.64
-15731.7
65.214
-19135.7
1546.24
-8923.16
1946.26
6992.33
15180.6
143.017
-6596.18
367.284
-2912.89
278.542
2384.69
49.6635
4695.61
-106.543
6976.21
-705.106
7664.79
-1743.79
6281.39
-2595.1
5865.87
-3128.31
7153.38
-2601.68
4542.34
-1803.54
-3490.84
-2906.51
-4535.12
-4297.54
-2985.56
-3885.94
-8147.13
-2568.87
-17048.8
-946.996
-20757.6
364.405
-10234.6
1030.61
6326.12
15163.9
-159.425
-6436.76
115.586
-3187.9
134.138
2366.13
-166.318
4996.06
-320.588
7130.48
-704.101
8048.3
-1580.2
7157.49
-2458.9
6744.57
-2863.3
7557.78
-1946.45
3625.49
-1293.17
-4144.12
-2725.74
-3102.55
-3724.2
-1987.09
-3154.8
-8716.53
-2611.59
-17592
-1889.12
-21480
-799.956
-11323.7
87.1698
5439
14607.7
-477.22
-5959.54
-293.392
-3371.73
-214.108
2286.85
-473.289
5255.24
-603.802
7260.99
-836.225
8280.73
-1517.22
7838.48
-2342.36
7569.72
-2587.54
7802.96
-1290.54
2328.49
-966.789
-4467.87
-2369.55
-1699.8
-2603.8
-1752.84
-2202.71
-9117.63
-2661.52
-17133.2
-2807.91
-21333.7
-1905.44
-12226.2
-791.821
4325.38
13550.9
-818.709
-5140.83
-835.794
-3354.65
-711.425
2162.48
-817.547
5361.36
-877.067
7320.51
-999.818
8403.48
-1506.16
8344.82
-2228.82
8292.38
-2261.21
7835.34
-678.316
745.591
-961.995
-4184.19
-2258.92
-402.873
-1862.08
-2149.68
-1923.06
-9056.65
-3140
-15916.2
-3777.09
-20696.6
-2840.07
-13163.2
-1460.86
2946.16
12112.9
-1171.71
-3969.12
-1351.8
-3174.56
-1161.07
1971.74
-1116.24
5316.54
-1089.14
7293.4
-1131.41
8445.75
-1509.99
8723.4
-2117.09
8899.47
-1850
7568.25
-440.989
-663.418
-1458.02
-3167.17
-2545.89
684.993
-2036.58
-2658.99
-2565.48
-8527.75
-4040.36
-14441.3
-4797.64
-19939.3
-3666.67
-14294.2
-2199.93
1479.43
10811.4
-1540.98
-2428.14
-1869.61
-2845.92
-1589.54
1691.67
-1387.78
5114.77
-1259.76
7165.38
-1230.56
8416.56
-1534.4
9027.25
-2036.99
9402.05
-1402.18
6933.45
-777.565
-1288.03
-2381.74
-1562.99
-3047.26
1350.51
-2801.55
-2904.7
-3515.24
-7814.06
-4863.94
-13092.6
-5751.09
-19052.1
-4151.69
-15893.6
-2192.19
-480.07
9216.04
-1901.06
-527.088
-2458.56
-2288.43
-2130.87
1363.97
-1748.15
4732.05
-1487.06
6904.29
-1390.77
8320.27
-1687.08
9323.55
-2107.96
9822.93
-1447.84
6273.33
-1739.84
-996.042
-3438.22
135.388
-3754.41
1666.71
-3786.1
-2873.02
-4266.51
-7333.65
-5189.75
-12169.4
-6491.37
-17750.5
-5451.71
-16933.2
-3643.89
-2287.89
11440.5
-2324.57
1797.48
-3112.58
-1500.42
-2863.47
1114.86
-2361.97
4230.56
-1994.99
6537.31
-1890.48
8215.76
-2208.49
9641.56
-2446.52
10061
-2014.91
5841.72
-2860.51
-150.441
-4319.18
1594.06
-4700.18
2047.71
-4941.17
-2632.03
-4951.46
-7323.37
-5164.18
-11956.7
-6802.4
-16112.3
-7927.6
-15808
-7093.38
-3122.11
12094.1
-2592.39
4389.87
-3730.93
-361.88
-3730.24
1114.17
-3322.71
3823.03
-3023.17
6237.77
-2984.37
8176.96
-3164.98
9822.16
-2963.43
9859.42
-2640.12
5518.4
-3762.34
971.777
-5151.85
2983.57
-5887.7
2783.56
-6262.23
-2257.5
-5872.88
-7712.72
-5313.93
-12515.6
-6455.28
-14970.9
-8994.02
-13269.3
-9306.36
-2809.77
10716.3
-2562.66
6952.53
-4094.49
1169.95
-4489.95
1509.63
-4412.4
3745.49
-4355.95
6181.32
-4333.42
8154.43
-4096.34
9585.09
-3291.97
9055.05
-3013.95
5240.38
-4430.09
2387.92
-6032.33
4585.81
-7041.06
3792.29
-7305.16
-1993.4
-6673.1
-8344.77
-5792.63
-13396.1
-5871.83
-14891.8
-7941.41
-11199.7
-8684.1
-2067.08
8228.38
-2244.39
9196.91
-4052.18
2977.75
-4884.57
2342.02
-5181.88
4042.8
-5352.02
6351.46
-5198.92
8001.32
-4423.91
8810.08
-3201.95
7833.08
-3174.68
5213.11
-4947.07
4160.31
-6725.87
6364.61
-7506.56
4572.97
-7102.44
-2397.52
-6327.97
-9119.25
-6029.03
-13695
-5761.08
-15159.7
-6006.89
-10953.9
-5706.86
-2367.11
3972.36
-1796.31
10993.2
-3695.2
4876.63
-4852.87
3499.69
-5397.48
4587.41
-5631.09
6585.07
-5224.64
7594.87
-4037.08
7622.52
-2821.37
6617.36
-3260.9
5652.64
-5317.13
6216.54
-6956.94
8004.41
-6695.01
4311.04
-5083.66
-4008.87
-4320.21
-9882.7
-5360.18
-12655
-6233.79
-14286.1
-4834
-12353.7
-2910.01
-4291.11
861.101
-1304.9
-3159.89
-4498.83
-5140.23
-5282.32
-4599.9
-3268.81
-2449.23
-3399.48
-5537.31
-6676.16
-5084.44
-2610.17
-1965.55
-4021.03
-6810.01
-6110.31
-2181.81
-682.836
1657.83
-1110.4
1402.56
-1547.02
1411.61
-1899.29
1327.27
-2212.75
1288.46
-2476.27
1238.51
-2697.64
1196.37
-2876.1
1153.46
-3012.84
1111.73
-3107.44
1069.6
-3159.54
1027.1
-3168.59
984.043
-3133.49
939.898
-3049.13
890.636
-2898.93
824.808
-2648.73
724.791
-2251.5
577.774
-1668.09
391.585
-897.527
204.437
77.4725
-202.662
1860.49
-448.323
1648.21
-709.905
1673.19
-925.228
1542.59
-1130.69
1493.91
-1300.83
1408.65
-1446.75
1342.29
-1563.32
1270.03
-1653.57
1201.98
-1717
1133.02
-1754.48
1064.58
-1766.12
995.685
-1751.32
925.093
-1704.9
844.218
-1613.24
733.145
-1451.2
562.748
-1193.71
320.277
-840.519
38.3932
-441.14
-194.948
-363.667
-107.927
1968.41
-248.649
1788.93
-349.847
1774.39
-403.571
1596.3
-446.752
1537.09
-453.449
1415.34
-442.265
1331.1
-406.641
1234.4
-353.689
1149.02
-285.62
1064.95
-205.101
984.051
-111.126
901.703
-2.49231
816.452
116.644
725.075
229.793
619.99
306.157
486.378
308.341
318.086
227.478
119.246
94.3608
-61.8405
-269.306
34.6067
1933.8
31.9843
1791.55
53.0207
1753.35
91.0795
1558.24
128.129
1500.04
185.282
1358.19
245.301
1271.08
317.605
1162.09
397.863
1068.76
492.716
970.091
602.484
874.28
723.444
780.741
850.187
689.706
975.376
599.883
1078.66
516.707
1118.19
446.843
1040.91
395.363
805.749
354.405
445.019
298.885
175.712
20.6151
1913.18
19.4688
1792.69
29.0038
1743.81
23.5538
1563.69
18.1782
1505.41
2.90026
1373.46
-25.2733
1299.24
-60.8861
1197.69
-88.1606
1096.03
-82.053
963.975
-34.2335
826.452
48.1816
698.315
157.94
579.938
296.082
461.729
459.581
353.2
620.046
286.371
709.634
305.772
636.368
427.668
364.844
570.405
540.556
-88.9493
2002.13
-185.414
1889.15
-277.336
1835.73
-398.145
1684.49
-519.038
1626.3
-662.83
1517.25
-822.041
1458.46
-994.557
1370.21
-1161.7
1263.17
-1299.65
1101.93
-1394.65
921.454
-1442.62
746.278
-1441.58
578.897
-1386.2
406.354
-1273.99
240.989
-1104.43
116.803
-862.841
64.1878
-530.238
95.0656
-188.534
228.701
352.022
-29.1768
2031.3
-168.428
2028.4
-260.542
1927.84
-357.038
1780.99
-451.911
1721.17
-549.142
1614.47
-646.229
1555.54
-744.436
1468.41
-850.444
1369.18
-966.895
1218.38
-1087.57
1042.13
-1200.06
858.761
-1300.73
679.563
-1390.66
496.293
-1462.1
312.421
-1476.29
130.997
-1370.58
-41.5208
-1129.65
-145.86
-619.156
-281.794
-267.133
164.947
1866.36
58.7388
2134.61
21.586
1964.99
13.2779
1789.3
20.214
1714.24
33.9024
1600.79
63.3702
1526.07
100.179
1431.6
132.151
1337.21
136.002
1214.53
105.422
1072.72
47.6848
916.501
-26.9398
754.192
-113.475
582.833
-201.748
400.702
-271.576
200.836
-276.073
-37.0125
-273.636
-148.289
-240.17
-315.255
-507.303
278.169
1588.18
272.212
2140.57
279.549
1957.65
328.819
1740.02
404.271
1638.78
483.105
1521.95
577.887
1431.29
680.138
1329.35
786.138
1231.2
876.076
1124.59
937.638
1011.15
963.857
890.28
954.108
763.941
904.197
632.744
808.062
496.837
656.212
352.684
416.079
203.121
247.041
20.7491
115.715
-183.929
-391.588
233.456
1354.73
278.356
2095.67
297.25
1938.76
342.951
1694.32
407.817
1573.92
471.438
1458.33
538.812
1363.92
606.475
1261.69
673.496
1164.18
732.024
1066.06
774.88
968.298
795.604
869.557
790.475
769.071
757.444
665.776
695.378
558.904
603.159
444.904
484.431
321.851
333.048
172.136
165.206
-16.0823
-226.382
139.283
1215.45
181.661
2053.29
198.339
1922.08
225.953
1666.71
260.885
1538.99
293.166
1426.05
323.205
1333.88
351.419
1233.48
376.575
1139.03
397.383
1045.26
410.977
954.704
414.87
865.665
406.341
777.601
383.842
688.276
346.239
596.508
293.938
497.207
228.565
387.225
150.67
250.035
61.2811
73.3115
-165.101
77.8871
1137.56
105.063
2026.12
111.507
1915.64
123.343
1654.88
136.721
1525.61
148.012
1414.76
156.446
1325.45
164.094
1225.83
169.119
1134.01
172.755
1041.62
173.612
953.85
171.724
867.557
165.489
783.838
154.17
699.599
136.049
614.632
111.462
521.797
79.3728
419.317
43.5193
285.894
11.9896
104.849
-153.111
57.8334
1079.73
78.1035
2005.85
74.4733
1919.27
76.0882
1653.26
80.6482
1521.05
84.1613
1411.25
85.6047
1324.01
86.5474
1224.89
85.7311
1134.83
84.6637
1042.69
82.6271
955.888
80.508
869.678
77.6376
786.71
73.8823
703.356
67.6847
620.831
58.548
530.935
43.9102
433.957
24.2901
305.518
6.95751
122.186
-146.154
52.2914
1027.44
73.1239
1985.02
68.123
1924.27
67.0675
1654.32
73.6892
1514.43
80.8346
1404.11
86.8052
1318.04
91.2269
1220.47
94.2872
1131.77
96.4654
1040.52
97.7886
954.568
98.4971
868.974
98.5234
786.687
97.4652
704.418
94.4435
623.856
87.8192
537.562
75.0971
446.681
52.1791
328.44
20.3123
154.059
-125.842
40.4233
987.022
64.6347
1960.81
67.2646
1921.65
68.1531
1653.44
81.5681
1501.02
98.5131
1387.17
116.019
1300.54
131.113
1205.38
144.849
1118.03
156.363
1029.01
165.964
944.97
172.61
862.33
175.946
783.353
174.699
705.667
168.21
630.348
154.385
551.389
131.791
469.278
95.4472
364.786
37.6355
211.875
-88.2059
22.0645
964.96
54.9027
1927.97
70.1368
1906.41
72.8036
1650.77
90.4161
1483.41
115.663
1361.92
144.82
1271.38
172.029
1178.18
197.851
1092.21
220.139
1006.72
238.678
926.434
251.45
849.561
257.36
777.444
254.697
708.334
242.663
642.385
219.673
574.381
184.94
504.013
135.775
413.952
58.7071
288.947
-29.4988
10.9263
954.036
62.035
1876.86
91.8056
1876.64
95.5274
1647.05
111.708
1467.23
139.328
1334.3
175.376
1235.34
211.194
1142.36
245.472
1057.94
274.718
977.479
297.68
903.474
312.219
835.025
317.008
772.657
310.672
714.672
292.666
660.392
262.279
604.769
219.105
547.188
162.39
470.669
80.0059
371.335
50.5072
16.3844
937.653
95.9284
1797.32
153.734
1818.84
175.158
1625.63
196.589
1445.8
225.644
1305.25
263.379
1197.6
301.62
1104.12
337.376
1022.18
366.575
948.283
387.282
882.767
397.069
825.24
395.207
774.52
381.383
728.498
355.59
686.186
317.528
642.833
266.806
597.91
202.616
534.859
116.478
457.473
166.985
58.5251
879.129
146.218
1709.63
204.41
1760.65
234.552
1595.49
262.253
1418.1
295.111
1272.4
334.469
1158.25
373.618
1064.97
408.257
987.547
433.949
922.591
448.247
868.471
451.587
821.902
442.244
783.864
419.424
751.318
384.002
721.608
335.928
690.907
275.749
658.088
200.897
609.711
109.111
549.257
276.096
100.483
295.297
480.808
614.155
710.685
781.87
834.26
868.869
886.29
886.508
870.856
842.227
788.67
724.071
649.229
563.522
466.142
352.208
214.151
)
;

boundaryField
{
    outletWallLeft
    {
        type            calculated;
        value           nonuniform List<scalar> 
40
(
120.176
94.3241
65.789
35.421
4.12698
-28.2436
-61.7577
-95.7548
-130.728
-164.535
-201.472
-231.717
-278.795
-289.819
-387.919
-290.705
-648.982
40.3736
-1717.65
1814.52
-5744.37
-5059.53
-5380.99
-5209.93
-5667.6
-6509.12
-7587.7
-8413.36
-8981.45
-8830.17
-6289.9
-1912.49
2790.62
8934.64
12250.8
15068
11823
19690.5
1019.01
45363
)
;
    }
    fineWallsLeft
    {
        type            calculated;
        value           uniform 0;
    }
    fineFrontAndBackLeft
    {
        type            calculated;
        value           nonuniform List<scalar> 
880
(
-3.81274e-15
5.52551e-15
-7.88268e-14
7.23284e-14
-6.2873e-13
-1.71929e-12
-5.70855e-13
-1.86962e-12
-1.98085e-12
-4.76217e-13
-1.55651e-12
-3.9572e-13
-1.10147e-12
-1.09427e-12
-2.61699e-13
-9.03453e-13
-2.68902e-13
-8.86377e-13
-1.18079e-12
-3.29987e-13
-6.96098e-14
6.07264e-13
-4.69377e-13
-4.79072e-13
-4.79829e-13
-6.96673e-13
-6.50886e-13
-6.7129e-13
-6.70482e-13
-6.77317e-13
-7.07182e-13
-5.66613e-12
-7.72659e-13
-7.88185e-13
-8.01915e-13
-7.90362e-13
-8.12385e-13
-7.94073e-13
-6.7234e-13
-7.83704e-13
-8.34189e-12
-1.33717e-12
-1.5689e-12
-1.26261e-11
-2.65304e-12
-3.07635e-12
-3.44879e-12
-2.08e-11
-3.01661e-12
-3.08801e-12
-2.60742e-12
5.64649e-12
5.04604e-12
5.11946e-12
2.68168e-11
3.70883e-12
3.70036e-12
3.6767e-12
2.25555e-11
3.98436e-12
-1.07206e-13
-7.65399e-13
-1.08429e-12
-5.24953e-13
-1.15194e-13
-1.54675e-12
-5.89777e-12
-1.14188e-11
-1.78124e-11
-3.10936e-11
-4.5364e-11
-3.1301e-11
1.68383e-13
3.78504e-12
7.19877e-13
-2.44407e-11
-4.34188e-11
-3.13992e-11
-1.01138e-12
-3.78384e-14
-4.92626e-13
-8.51778e-13
-4.44651e-13
-9.55554e-13
-5.32503e-12
-1.32184e-11
-1.79297e-11
-2.02986e-11
-3.09151e-11
-4.09558e-11
-1.82162e-11
1.57715e-12
7.26832e-13
2.38935e-13
-1.54263e-11
-3.65138e-11
-3.92037e-11
-1.78983e-11
-8.29943e-15
-2.78647e-13
-5.57364e-13
-2.10066e-13
-1.82742e-12
-1.00495e-11
-2.17613e-11
-2.44731e-11
-2.29239e-11
-3.02239e-11
-3.51175e-11
-8.67827e-12
9.65031e-13
-1.11472e-13
4.24201e-13
-4.10834e-12
-1.83996e-11
-3.15562e-11
-3.19205e-11
1.0155e-15
-1.40093e-13
-2.93278e-13
1.19431e-13
-2.39082e-12
-1.4694e-11
-3.06666e-11
-3.25e-11
-2.77886e-11
-3.07461e-11
-2.99593e-11
-3.82127e-12
-1.70352e-14
4.86314e-13
5.85283e-13
8.70236e-13
-9.80173e-13
-1.45646e-11
-2.97691e-11
2.48147e-15
-6.42762e-14
-1.13712e-13
4.36966e-13
-2.3169e-12
-1.76758e-11
-3.87392e-11
-4.32724e-11
-3.71596e-11
-3.47875e-11
-2.67299e-11
-8.07299e-13
-7.73417e-13
9.6569e-13
3.04727e-13
-9.07759e-14
1.40645e-12
-1.18805e-12
-1.36604e-11
1.85869e-15
-2.8547e-14
-2.35607e-14
6.29226e-13
-1.57154e-12
-1.74824e-11
-4.32086e-11
-5.46116e-11
-5.03855e-11
-4.24474e-11
-2.49184e-11
-2.53697e-13
-4.46558e-13
9.69844e-13