/*--------------------------------*- C++ -*----------------------------------*\
| =========                 |                                                 |
| \\      /  F ield         | OpenFOAM: The Open Source CFD Toolbox           |
|  \\    /   O peration     | Version:  4.1                                   |
|   \\  /    A nd           | Web:      www.OpenFOAM.org                      |
|    \\/     M anipulation  |                                                 |
\*---------------------------------------------------------------------------*/
FoamFile
{
    version     2.0;
    format      ascii;
    class       volVectorField;
    location    "5";
    object      U;
}
// * * * * * * * * * * * * * * * * * * * * * * * * * * * * * * * * * * * * * //

dimensions      [0 1 -1 0 0 0 0];

internalField   nonuniform List<vector> 
1680
(
(-1.04926e-18 2.78004 -0.0208133)
(3.99314e-18 2.05182 -0.008601)
(-2.1693e-17 2.02558 0.000173418)
(5.22698e-17 1.71066 0.0391077)
(-1.41979e-16 2.12348 -0.0414747)
(-4.73144e-16 2.16277 -0.117374)
(-4.12542e-16 1.77933 -0.073419)
(-5.14516e-16 2.12467 -0.14091)
(-5.45126e-16 2.29925 -0.231166)
(-3.4415e-16 1.78059 -0.155564)
(-4.28349e-16 2.53807 -0.319732)
(-2.85976e-16 1.95679 -0.219374)
(-3.03121e-16 2.24245 -0.341858)
(-3.01141e-16 2.50669 -0.518228)
(-1.89123e-16 2.05009 -0.327581)
(-2.48628e-16 2.70748 -0.620289)
(-1.94329e-16 2.43218 -0.334257)
(-2.43929e-16 1.90468 -0.838155)
(-3.24951e-16 4.6687 0.0881202)
(-2.38473e-16 0.467176 -3.27312)
(-2.85578e-16 3.24039 2.92394)
(2.43514e-16 1.61863 -0.229731)
(-1.92565e-15 4.03861 6.57767)
(-1.96542e-15 4.58003 7.60542)
(-1.96853e-15 4.73016 8.5306)
(-2.85815e-15 4.84591 9.33141)
(-2.6703e-15 4.99561 10.0352)
(-2.75401e-15 5.05251 10.6472)
(-2.75069e-15 5.19379 11.2146)
(-2.77874e-15 5.09887 11.6408)
(-2.90126e-15 5.46331 12.2656)
(-2.27213e-15 4.88262 10.8874)
(-3.16988e-15 6.73597 14.0552)
(-3.23358e-15 6.84807 14.3667)
(-3.28991e-15 6.89785 14.5953)
(-3.24251e-15 6.88 14.7707)
(-3.33286e-15 6.98456 14.9413)
(-3.25773e-15 6.82481 15.0126)
(-2.75832e-15 7.19715 15.8501)
(-3.2152e-15 6.82699 14.439)
(-2.90405e-15 9.48286 15.8562)
(-2.14806e-15 6.52093 11.3081)
(-2.5399e-15 5.56677 10.7249)
(-4.38571e-15 5.88825 13.9443)
(-4.2619e-15 4.21778 10.1722)
(-4.94194e-15 3.87698 10.1305)
(-5.54022e-15 3.10919 10.0569)
(-7.24107e-15 2.43212 11.4046)
(-4.84596e-15 1.47865 7.00481)
(-4.96065e-15 1.35027 6.84155)
(-9.07716e-16 -0.284463 2.96292)
(9.07066e-15 -0.448228 -4.23576)
(8.1061e-15 -0.139902 -3.83287)
(8.22404e-15 0.143776 -4.24196)
(9.25346e-15 -0.547667 -4.60473)
(5.95796e-15 -0.522243 -2.42665)
(5.94436e-15 -0.330756 -2.83172)
(5.90635e-15 -0.187026 -2.95383)
(7.85222e-15 -0.231718 -3.73419)
(6.40058e-15 -0.379643 -2.73933)
(-2.38237e-17 -4.27529 0.504609)
(-1.70089e-16 -2.5343 2.85092)
(-2.40953e-16 -1.84366 5.76599)
(-1.16656e-16 -1.85193 7.40734)
(-2.55986e-17 -2.25231 8.00296)
(-3.43721e-16 -2.16769 7.32911)
(-1.31062e-15 -1.87513 5.19354)
(-2.5375e-15 -1.84047 3.44583)
(-3.95831e-15 -2.39807 4.23061)
(-6.90968e-15 -3.13299 7.77747)
(-1.00809e-14 -3.17935 10.925)
(-6.95578e-15 -0.578066 9.14701)
(3.74183e-17 2.5888 3.26582)
(8.4112e-16 3.61649 1.51527)
(1.59973e-16 3.14859 1.54463)
(-5.43127e-15 3.23457 7.94778)
(-9.64862e-15 4.31178 14.1059)
(-6.97759e-15 3.33299 11.3747)
(-2.24751e-16 1.46974 3.92124)
(-8.40853e-18 -4.50784 0.57574)
(-1.09473e-16 -3.01353 2.04652)
(-1.89284e-16 -2.3081 4.73464)
(-9.88114e-17 -2.06234 6.44943)
(-2.12345e-16 -2.22864 6.90636)
(-1.18334e-15 -1.87002 6.08374)
(-2.93742e-15 -1.53571 4.26255)
(-3.98438e-15 -1.84751 3.51622)
(-4.51081e-15 -2.85184 4.78644)
(-6.87002e-15 -3.74511 7.87944)
(-9.10129e-15 -3.20883 10.3139)
(-4.04805e-15 0.326354 6.79679)
(3.50477e-16 3.25467 2.11574)
(1.61518e-16 3.73765 1.37803)
(5.30966e-17 2.62709 1.07618)
(-3.42808e-15 1.96881 5.00768)
(-8.11417e-15 3.64343 12.2226)
(-8.71192e-15 4.22075 13.64)
(-3.97739e-15 3.73692 8.42372)
(-1.84432e-18 -4.70538 0.644091)
(-6.19215e-17 -3.37221 1.46329)
(-1.23859e-16 -2.74658 3.76826)
(-4.66814e-17 -2.26458 5.49269)
(-4.06094e-16 -2.19834 5.91147)
(-2.23321e-15 -1.63205 5.28204)
(-4.83585e-15 -1.35718 4.21416)
(-5.43847e-15 -1.95964 4.18919)
(-5.0942e-15 -3.25642 5.29744)
(-6.71642e-15 -4.22061 7.7972)
(-7.80388e-15 -3.01807 9.41908)
(-1.9285e-15 1.1081 4.71295)
(2.14451e-16 3.70323 1.3844)
(-2.47715e-17 3.79628 1.09778)
(9.42669e-17 2.50295 0.779662)
(-9.12964e-16 0.980572 1.12033)
(-4.08881e-15 2.55319 6.68158)
(-7.01249e-15 4.22777 12.2304)
(-7.09344e-15 5.1857 12.1332)
(2.25667e-19 -4.88197 0.684219)
(-3.11317e-17 -3.62718 1.08367)
(-6.51729e-17 -3.14326 2.94673)
(2.65402e-17 -2.46562 4.62327)
(-5.31293e-16 -2.21031 5.11307)
(-3.26534e-15 -1.52032 4.96806)
(-6.81481e-15 -1.31603 4.79783)
(-7.22223e-15 -2.07645 5.06079)
(-6.17524e-15 -3.56029 5.73897)
(-6.83246e-15 -4.55685 7.6598)
(-6.65763e-15 -2.64182 8.42849)
(-8.49171e-16 1.82698 3.15002)
(-3.78559e-18 4.02041 0.93545)
(1.0807e-16 3.82927 0.68776)
(1.30063e-16 2.66068 0.586459)
(1.93386e-16 0.756427 -0.496502)
(-2.17816e-16 1.34629 0.233636)
(-3.23658e-15 3.12262 7.59408)
(-6.61536e-15 5.43811 13.4126)
(5.51437e-19 -5.04464 0.69373)
(-1.42836e-17 -3.79839 0.85863)
(-2.52694e-17 -3.49155 2.30569)
(9.71035e-17 -2.66748 3.88263)
(-5.14866e-16 -2.29315 4.4789)
(-3.92796e-15 -1.55621 4.89881)
(-8.60871e-15 -1.37609 5.59031)
(-9.61608e-15 -2.15907 6.1005)
(-8.25769e-15 -3.75937 6.42544)
(-7.73056e-15 -4.75228 7.7244)
(-5.93997e-15 -2.11278 7.40872)
(-1.794e-16 2.53847 1.67447)
(-1.71871e-16 4.22434 0.694165)
(2.14598e-16 3.84486 0.308282)
(6.77171e-17 2.72811 0.477402)
(-2.01724e-17 1.05748 0.217064)
(3.12544e-16 0.917706 -1.16869)
(-2.64011e-16 1.57614 2.23609)
(-3.03564e-15 4.65846 10.2511)
(4.13043e-19 -5.20772 0.673892)
(-6.34378e-18 -3.90639 0.739582)
(-5.23572e-18 -3.79434 1.84379)
(1.39828e-16 -2.86456 3.28798)
(-3.49231e-16 -2.44103 3.94148)
(-3.88497e-15 -1.72996 4.75209)
(-9.60192e-15 -1.55876 6.17796)
(-1.21359e-14 -2.25679 7.27796)
(-1.11968e-14 -3.86968 7.5951)
(-9.43276e-15 -4.75733 8.14679)
(-5.53742e-15 -1.42346 6.31194)
(-5.6377e-17 3.16968 0.521652)
(-9.92352e-17 4.32138 0.408813)
(2.15521e-16 3.8515 0.0241559)
(1.93561e-17 2.71119 0.456086)
(-7.49695e-18 1.10126 0.418122)
(-8.63363e-17 0.993139 0.0246561)
(1.49894e-16 0.685857 -0.212573)
(-1.01413e-15 3.60176 5.07)
(2.48201e-19 -5.37516 0.638409)
(-3.02804e-18 -3.96976 0.693812)
(1.05072e-18 -4.05671 1.53626)
(1.44117e-16 -3.0449 2.84155)
(-1.19706e-16 -2.61443 3.476)
(-3.12543e-15 -1.98816 4.36406)
(-9.21421e-15 -1.88443 6.17675)
(-1.36531e-14 -2.45542 8.10248)
(-1.39013e-14 -3.92144 8.83355)
(-1.11046e-14 -4.50747 8.59254)
(-4.88706e-15 -0.564208 4.8974)
(-4.68709e-16 3.71851 -0.0259039)
(9.98837e-17 4.35461 0.00635057)
(1.57129e-16 3.81932 -0.131886)
(1.45003e-18 2.65606 0.534674)
(1.72303e-18 1.15661 0.67728)
(2.57634e-17 0.958393 0.115922)
(-5.49581e-17 0.652367 0.381347)
(-2.66e-16 0.827239 -1.01157)
(1.44236e-19 -5.56203 0.629123)
(-1.70795e-18 -4.00287 0.70207)
(9.9823e-19 -4.29243 1.34968)
(1.1891e-16 -3.20605 2.53266)
(6.23758e-17 -2.77905 3.09906)
(-2.01935e-15 -2.25467 3.8054)
(-7.49259e-15 -2.31204 5.47811)
(-1.33379e-14 -2.79385 7.98491)
(-1.52002e-14 -3.95218 9.33019)
(-1.17992e-14 -3.97383 8.42815)
(-3.22179e-15 0.391213 2.75178)
(-6.61103e-16 4.12515 -0.324193)
(2.18797e-16 4.36656 -0.397601)
(9.69395e-17 3.73247 -0.165352)
(-1.96095e-18 2.55963 0.694431)
(1.9646e-18 1.20141 0.885214)
(8.46904e-18 1.00616 0.29965)
(2.79723e-17 0.941634 0.230931)
(1.7428e-18 1.19155 -2.58964)
(8.70679e-20 -5.75794 0.690649)
(-1.10271e-18 -4.00732 0.751314)
(-4.41647e-19 -4.49946 1.25051)
(8.19585e-17 -3.33899 2.34217)
(1.4369e-16 -2.90157 2.82384)
(-1.01311e-15 -2.44178 3.24225)
(-5.10058e-15 -2.72405 4.3354)
(-1.12506e-14 -3.21985 6.8283)
(-1.47378e-14 -3.98592 8.68288)
(-1.14752e-14 -3.23168 7.45846)
(-2.15882e-15 1.11393 0.836792)
(-4.29519e-16 4.35124 -0.69409)
(2.52624e-16 4.33857 -0.703105)
(5.04141e-17 3.59056 -0.0829796)
(-2.30457e-18 2.4499 0.891343)
(1.71514e-18 1.25018 1.00945)
(6.20337e-18 1.06332 0.375203)
(3.82296e-18 1.11433 0.208546)
(1.45923e-17 1.1431 -0.67353)
(5.53825e-20 -6.02448 0.834685)
(-7.00854e-19 -3.98599 0.822119)
(-1.3903e-18 -4.71034 1.21079)
(4.70259e-17 -3.46557 2.2474)
(1.41719e-16 -3.0048 2.63645)
(-3.4033e-16 -2.54283 2.76609)
(-2.83192e-15 -3.04466 3.11071)
(-8.10995e-15 -3.65643 5.01746)
(-1.28001e-14 -4.05627 7.07457)
(-1.07779e-14 -2.42275 6.06258)
(-2.78626e-15 1.8507 0.137801)
(-2.1862e-16 4.48844 -1.03646)
(2.40676e-16 4.25234 -0.844672)
(2.1781e-17 3.40557 0.106299)
(-1.27132e-18 2.34483 1.05532)
(9.09335e-19 1.31629 1.05259)
(5.40256e-18 1.13668 0.413988)
(9.53341e-18 1.24132 0.205821)
(5.0367e-18 1.24099 -1.12113)
(4.22693e-20 -6.25722 0.997134)
(-3.62335e-19 -3.92262 0.91451)
(-1.91072e-18 -4.87708 1.2039)
(1.99629e-17 -3.54612 2.2276)
(1.05644e-16 -3.03255 2.5042)
(1.72517e-17 -2.49735 2.36993)
(-1.17233e-15 -3.17629 2.03673)
(-4.8623e-15 -3.99662 3.108)
(-9.93153e-15 -4.18384 4.98884)
(-9.7747e-15 -1.75323 4.51566)
(-2.40749e-15 2.50416 -0.630839)
(-1.19061e-16 4.57565 -1.32929)
(1.64998e-16 4.11197 -0.777975)
(8.95675e-18 3.20346 0.359049)
(-5.57214e-19 2.26219 1.13675)
(4.30612e-19 1.38962 1.03644)
(3.26964e-18 1.21353 0.424878)
(6.68742e-18 1.37672 0.189503)
(7.36895e-18 1.35516 -0.597102)
(4.21126e-20 -6.7199 1.12537)
(-1.14076e-19 -3.84865 1.01261)
(-2.30498e-18 -5.1313 1.21344)
(2.87724e-18 -3.6766 2.2535)
(7.37263e-17 -3.11541 2.41761)
(1.77553e-16 -2.45844 2.10187)
(-2.01819e-16 -3.23406 1.28839)
(-2.27592e-15 -4.24242 1.60683)
(-6.73051e-15 -4.35181 2.94361)
(-8.40258e-15 -1.24891 2.9798)
(-1.24728e-15 2.9894 -1.5706)
(3.26466e-17 4.55432 -1.64766)
(7.08781e-17 3.91515 -0.546004)
(2.26791e-18 3.01852 0.592735)
(-1.67001e-19 2.21193 1.13016)
(8.47198e-20 1.46841 0.987602)
(2.01343e-18 1.29093 0.4174)
(5.27923e-18 1.46421 0.171125)
(5.85659e-18 1.43243 -0.472238)
(3.70468e-20 -6.79854 1.09466)
(-1.66003e-20 -3.70648 1.20762)
(-1.93749e-18 -5.18856 1.20956)
(-1.79833e-18 -3.65066 2.30988)
(4.4786e-17 -2.97763 2.44962)
(1.60516e-16 -2.15593 2.32771)
(1.47921e-16 -3.03566 1.36091)
(-7.61559e-16 -4.28673 1.06446)
(-3.94386e-15 -4.48371 1.55684)
(-6.741e-15 -0.848017 1.62911)
(-4.96658e-16 3.35201 -2.21281)
(1.73689e-16 4.41318 -1.84539)
(2.31273e-17 3.66441 -0.247113)
(-6.02296e-19 2.86842 0.725431)
(3.07746e-20 2.18757 1.06451)
(-5.53281e-20 1.54335 0.921754)
(8.96515e-19 1.3679 0.392929)
(3.30039e-18 1.56037 0.142509)
(6.96453e-18 1.49604 -0.456718)
(1.16194e-20 -7.89812 1.03203)
(-6.49116e-20 -3.65154 1.38017)
(5.07326e-20 -5.69075 1.20907)
(5.89816e-18 -3.96034 2.35887)
(-1.48149e-17 -3.34456 2.71491)
(-1.41584e-16 -2.38284 3.49833)
(-1.68347e-16 -3.12233 2.8625)
(-4.75877e-16 -4.29645 2.02216)
(-2.37104e-15 -4.49418 1.52066)
(-4.84606e-15 -0.499142 0.708605)
(-2.5558e-16 3.60026 -2.42776)
(1.75677e-16 4.1831 -1.67107)
(1.15549e-17 3.38627 0.047091)
(-5.99959e-19 2.74472 0.744727)
(2.54058e-20 2.16432 0.974411)
(-5.47358e-20 1.60067 0.844057)
(2.88678e-19 1.43047 0.354104)
(1.74882e-18 1.62015 0.112422)
(6.80039e-18 1.54227 -0.282145)
(-3.06639e-20 -6.75788 0.591495)
(-2.05053e-19 -3.37501 1.97695)
(2.99986e-18 -5.16305 1.13392)
(1.92555e-17 -3.58714 2.44285)
(-1.01195e-16 -2.9022 3.09805)
(-6.48465e-16 -1.79567 5.27546)
(-1.03322e-15 -2.52306 5.55888)
(-1.23502e-15 -3.93916 4.52711)
(-2.14576e-15 -4.23444 2.93483)
(-3.17153e-15 0.051143 0.0285778)
(-1.57691e-16 3.80415 -2.41424)
(9.0041e-17 3.93646 -1.139)
(5.17457e-18 3.16991 0.270633)
(-2.40795e-20 2.67433 0.698358)
(-1.40964e-20 2.15955 0.878054)
(-2.79083e-20 1.66453 0.757361)
(4.741e-20 1.50196 0.305542)
(8.87263e-19 1.6805 0.0854724)
(5.05081e-18 1.5872 -0.195692)
(-6.50426e-20 -10.9155 0.733619)
(-3.5143e-19 -3.57085 2.0162)
(5.18623e-18 -6.90853 1.21044)
(2.94528e-17 -4.84865 2.4834)
(-1.51664e-16 -4.72498 3.35436)
(-9.97157e-16 -3.54978 6.443)
(-1.82459e-15 -3.5077 7.81311)
(-2.19391e-15 -3.90728 7.04989)
(-2.37873e-15 -3.57573 4.39286)
(-1.36939e-15 0.730615 -1.49885)
(-5.38061e-17 3.88049 -2.37688)
(2.40628e-17 3.73707 -0.570482)
(4.51944e-19 3.09157 0.358417)
(8.08328e-20 2.69363 0.626507)
(-6.83401e-21 2.2158 0.773176)
(-1.08809e-20 1.7757 0.66046)
(1.19081e-20 1.61254 0.250757)
(5.42119e-19 1.77616 0.0629708)
(3.16734e-18 1.66086 -0.202251)
(-8.39036e-20 -3.01827 -1.16424)
(-4.71857e-19 -2.79258 4.0136)
(5.26231e-18 -3.38475 0.709693)
(3.1414e-17 -2.5894 2.50982)
(-1.32269e-16 -2.11997 2.99492)
(-9.90025e-16 -1.24024 6.4611)
(-2.03068e-15 -1.65636 8.80469)
(-2.51979e-15 -3.0037 8.48528)
(-2.18775e-15 -2.60571 4.67806)
(-2.0137e-16 1.26517 -2.74725)
(6.51325e-17 3.562 -2.17402)
(4.32109e-18 3.35633 -0.217483)
(-3.63353e-19 2.88513 0.334889)
(-3.65925e-21 2.55485 0.541936)
(1.95525e-21 2.1266 0.654983)
(-3.21111e-21 1.74726 0.55109)
(9.01923e-21 1.59176 0.192918)
(2.63704e-19 1.72979 0.0471349)
(1.13432e-18 1.61106 -0.0752343)
(-9.69323e-20 -22.973 3.52289)
(-4.6897e-19 -4.03034 2.11042)
(5.0584e-18 -11.6151 2.2434)
(2.81161e-17 -8.06426 3.0702)
(-9.01628e-17 -9.08919 3.62796)
(-7.63262e-16 -7.55468 6.1648)
(-1.70647e-15 -5.97497 8.27054)
(-2.13199e-15 -3.535 7.72876)
(-1.57987e-15 -1.3111 3.48293)
(-7.42592e-18 1.66905 -2.46435)
(5.32343e-17 3.00056 -1.48021)
(1.84884e-18 2.83072 -0.0487297)
(4.13409e-21 2.52999 0.296944)
(-8.80615e-21 2.24882 0.464617)
(2.15555e-22 1.88046 0.547198)
(3.16537e-22 1.57578 0.448375)
(7.75738e-22 1.44989 0.13966)
(3.37126e-20 1.56375 0.0363088)
(1.01015e-19 1.45385 -0.0777902)
(-5.47846e-20 21.4588 -16.2653)
(-5.86398e-19 -1.5241 9.31155)
(1.7552e-18 7.63462 -4.2448)
(1.68752e-17 3.8109 0.344241)
(-2.60564e-17 5.4722 -0.690963)
(-4.33394e-16 4.19274 2.80321)
(-1.14454e-15 2.30005 5.9524)
(-1.41866e-15 -1.11748 6.9198)
(-7.87787e-16 -0.434805 1.72057)
(-2.1464e-17 2.82119 -1.77346)
(5.48099e-18 3.7344 -0.718746)
(1.64719e-19 3.71379 0.0331274)
(2.04176e-20 3.46721 0.260909)
(2.41722e-21 3.12219 0.381632)
(-2.40828e-22 2.66005 0.439201)
(4.06617e-23 2.29883 0.346854)
(2.19449e-22 2.1085 0.0956734)
(3.8433e-21 2.21003 0.0302096)
(-3.17267e-19 2.05485 0.0774199)
(1.69649e-20 -68.5796 61.9046)
(1.67792e-18 -5.59184 -2.00298)
(7.99109e-18 -30.6808 23.7617)
(1.29364e-17 -19.8967 11.7593)
(-5.83315e-17 -24.2561 15.3657)
(-4.00309e-16 -19.8596 12.0334)
(-9.44264e-16 -14.2938 10.837)
(-9.75859e-16 -4.52143 4.90354)
(-1.11285e-16 0.91581 -2.60346)
(4.6457e-18 3.07085 -0.820132)
(-4.95433e-19 4.1115 -0.172152)
(-4.93756e-20 4.14646 0.0311669)
(-4.24152e-21 3.88854 0.11379)
(-1.14909e-22 3.52569 0.160799)
(5.60934e-23 3.03124 0.179893)
(-3.59831e-23 2.63109 0.135666)
(-1.9731e-22 2.39486 0.0345769)
(2.24808e-21 2.4754 0.0121249)
(6.3972e-20 2.32006 -0.0806858)
(3.02367e-18 6.85941 12.1601)
(-5.85859e-15 9.88182 16.8083)
(-4.86301e-15 9.59419 16.2481)
(-4.30511e-15 9.55845 15.9895)
(-4.46702e-15 9.5821 15.9157)
(-6.68742e-15 9.61837 15.8513)
(-4.78282e-15 9.62825 15.8095)
(-4.68019e-15 9.65681 15.7722)
(-4.3662e-15 9.65797 15.7479)
(-4.26991e-15 9.68725 15.7419)
(-4.27347e-15 9.67077 15.7281)
(-4.2648e-15 9.5972 15.5445)
(-4.35279e-15 9.63278 15.6822)
(-4.37296e-15 9.64424 15.7561)
(-4.348e-15 9.62564 15.8114)
(-4.16351e-15 9.6069 15.8719)
(-4.50681e-15 9.60813 15.9557)
(-4.22196e-15 9.87062 16.5788)
(-3.71751e-15 10.5091 17.5515)
(-6.0888e-15 6.56471 11.33)
(-2.43132e-17 6.26995 10.6927)
(-4.76528e-15 9.23274 15.9699)
(-3.60322e-15 8.70158 14.9946)
(-3.48967e-15 8.68758 14.9362)
(-3.76111e-15 8.7009 14.9801)
(-5.96848e-15 8.74626 14.9912)
(-3.70366e-15 8.75866 15.0235)
(-3.97134e-15 8.79664 15.038)
(-3.76142e-15 8.81542 15.0656)
(-3.46207e-15 8.84304 15.0795)
(-3.49863e-15 8.86442 15.1063)
(-3.61304e-15 8.91304 15.1639)
(-3.7739e-15 8.92943 15.1637)
(-3.77854e-15 8.94648 15.1785)
(-3.56205e-15 8.96285 15.2044)
(-3.39166e-15 8.97033 15.2147)
(-3.85882e-15 8.98708 15.2651)
(-3.457e-15 9.3322 15.8642)
(-3.36905e-15 9.74382 16.5999)
(-5.69467e-15 5.57569 9.5429)
(-6.92272e-19 6.47328 11.3138)
(-1.6068e-15 9.55647 16.484)
(-1.29656e-15 9.0246 15.6542)
(-1.36187e-15 9.00585 15.5092)
(-1.15447e-15 8.98159 15.5218)
(-3.25211e-15 9.01034 15.5)
(-1.83484e-15 8.99657 15.5009)
(-1.62223e-15 9.01464 15.4861)
(-1.84393e-15 9.00902 15.4841)
(-1.6036e-15 9.02099 15.4755)
(-1.6983e-15 9.02051 15.4721)
(-1.45908e-15 9.02225 15.4584)
(-1.54729e-15 9.02536 15.4635)
(-2.00103e-15 9.03352 15.4657)
(-1.6033e-15 9.035 15.4657)
(-1.61557e-15 9.02812 15.4478)
(-1.55476e-15 9.0558 15.4998)
(-1.48112e-15 9.4434 16.1547)
(-1.44817e-15 9.71972 16.5983)
(-2.97763e-15 5.30382 9.1258)
(4.40399e-19 6.34363 11.0018)
(3.92807e-16 9.47386 16.3456)
(2.64208e-16 8.9535 15.5128)
(2.97472e-16 8.91324 15.3623)
(3.22206e-16 8.89386 15.3862)
(-1.94578e-15 8.92199 15.3779)
(-1.67024e-15 8.90988 15.3884)
(-1.74926e-15 8.92791 15.3835)
(-1.69621e-15 8.92383 15.3892)
(-1.68939e-15 8.93559 15.3868)
(-1.76455e-15 8.93628 15.3897)
(-1.39824e-15 8.94594 15.3911)
(-1.58659e-15 8.94924 15.3908)
(-1.8398e-15 8.9551 15.3909)
(-1.51896e-15 8.9567 15.3868)
(-1.81054e-15 8.94821 15.364)
(-1.639e-15 9.00057 15.4528)
(-1.40362e-15 9.43641 16.1746)
(-1.35095e-15 9.53434 16.3313)
(-3.11002e-15 4.88104 8.36056)
(-4.75468e-19 6.4143 11.1636)
(-8.9301e-17 9.54585 16.4415)
(-6.9631e-17 9.01338 15.6253)
(-6.83315e-17 8.96219 15.4506)
(-7.77477e-17 8.93757 15.4727)
(4.77369e-16 8.96056 15.4631)
(4.059e-16 8.94566 15.4712)
(3.85115e-16 8.95863 15.466)
(4.25094e-16 8.95213 15.4704)
(3.76001e-16 8.96016 15.4682)
(3.91559e-16 8.95877 15.4704)
(3.50171e-16 8.96386 15.4695)
(3.67129e-16 8.96609 15.4706)
(4.48492e-16 8.9699 15.4714)
(3.8559e-16 8.97114 15.4644)
(3.70692e-16 8.96016 15.4429)
(3.7734e-16 9.0397 15.5671)
(3.59271e-16 9.49917 16.3425)
(3.4392e-16 9.44196 16.2195)
(7.08694e-16 4.6092 7.94086)
(2.83942e-19 6.44423 11.1963)
(2.12652e-17 9.52782 16.4094)
(1.78108e-17 8.99274 15.5862)
(1.59682e-17 8.93219 15.4104)
(1.80833e-17 8.9107 15.4348)
(-1.1333e-16 8.93001 15.4305)
(-9.20826e-17 8.91695 15.4416)
(-9.99381e-17 8.92756 15.4412)
(-9.3907e-17 8.92196 15.4493)
(-9.10872e-17 8.92858 15.4516)
(-9.62294e-17 8.92748 15.4581)
(-8.74822e-17 8.9322 15.4623)
(-9.67886e-17 8.93471 15.4676)
(-9.822e-17 8.9375 15.4732)
(-8.90183e-17 8.94001 15.4697)
(-8.72358e-17 8.92847 15.4569)
(-9.48952e-17 9.02628 15.6069)
(-8.49708e-17 9.49189 16.4184)
(-8.30205e-17 9.32235 16.1031)
(-1.65679e-16 4.42527 7.68805)
(-1.23177e-19 6.52045 11.3276)
(-5.08116e-18 9.516 16.3876)
(-4.17546e-18 8.97836 15.564)
(-3.80953e-18 8.91297 15.3897)
(-4.10892e-18 8.89237 15.4147)
(2.73133e-17 8.9073 15.4131)
(2.12368e-17 8.89435 15.4252)
(2.52112e-17 8.90138 15.4274)
(2.12603e-17 8.89495 15.437)
(2.20276e-17 8.89871 15.4418)
(2.24143e-17 8.89605 15.4505)
(2.16875e-17 8.89832 15.4571)
(2.37384e-17 8.89887 15.4653)
(2.23829e-17 8.89956 15.4741)
(2.0653e-17 8.90083 15.4743)
(2.18332e-17 8.88718 15.4677)
(2.28024e-17 8.98472 15.6172)
(1.95231e-17 9.43293 16.4339)
(1.9915e-17 9.24486 16.0895)
(3.54905e-17 4.4852 7.88077)
(4.38738e-20 6.59697 11.4445)
(1.20013e-18 9.47689 16.3239)
(9.398e-19 8.94744 15.5057)
(9.08551e-19 8.87637 15.3337)
(8.98732e-19 8.85814 15.3585)
(-6.70343e-18 8.86964 15.3596)
(-4.9639e-18 8.85711 15.3721)
(-6.00362e-18 8.86144 15.3761)
(-4.92215e-18 8.85413 15.3867)
(-5.3403e-18 8.8555 15.393)
(-5.16415e-18 8.85099 15.403)
(-5.29727e-18 8.85105 15.411)
(-5.56416e-18 8.8488 15.4209)
(-5.24555e-18 8.84749 15.4312)
(-4.99217e-18 8.84655 15.4359)
(-5.47511e-18 8.83117 15.4323)
(-5.41345e-18 8.9033 15.5434)
(-4.55677e-18 9.3043 16.3085)
(-4.81547e-18 9.24756 16.2062)
(-7.30205e-18 4.80962 8.5137)
(-1.35467e-20 6.69623 11.5992)
(-2.83709e-19 9.43917 16.2574)
(-2.14717e-19 8.92008 15.4478)
(-2.16044e-19 8.84535 15.2781)
(-1.86159e-19 8.82957 15.3012)
(1.64804e-18 8.83857 15.303)
(1.18362e-18 8.82664 15.3143)
(1.36525e-18 8.82908 15.3183)
(1.14979e-18 8.82128 15.328)
(1.28286e-18 8.82096 15.3339)
(1.21947e-18 8.81511 15.3431)
(1.26705e-18 8.81357 15.3503)
(1.28529e-18 8.80896 15.3596)
(1.24458e-18 8.80636 15.3687)
(1.22368e-18 8.80328 15.376)
(1.32853e-18 8.78882 15.3741)
(1.28337e-18 8.8221 15.4248)
(1.092e-18 9.13985 16.0519)
(1.16978e-18 9.32085 16.3846)
(1.507e-18 5.34701 9.48828)
(3.74382e-21 6.82038 11.7934)
(6.74269e-20 9.40035 16.1857)
(5.1e-20 8.89183 15.3847)
(5.17562e-20 8.81883 15.2244)
(3.62986e-20 8.80584 15.245)
(-3.98192e-19 8.81346 15.2468)
(-2.87652e-19 8.80293 15.2564)
(-3.04125e-19 8.80467 15.2597)
(-2.71983e-19 8.79749 15.2678)
(-3.0481e-19 8.79674 15.2726)
(-2.91558e-19 8.79093 15.2803)
(-2.97502e-19 8.78915 15.286)
(-2.96814e-19 8.78383 15.2938)
(-2.95457e-19 8.7814 15.3006)
(-2.95692e-19 8.77709 15.3081)
(-3.12022e-19 8.76745 15.3091)
(-3.03593e-19 8.77212 15.3175)
(-2.65378e-19 8.9867 15.745)
(-2.84034e-19 9.37149 16.4511)
(-3.16262e-19 5.96882 10.571)
(-9.48915e-22 6.9736 12.0407)
(-1.60078e-20 9.36098 16.1126)
(-1.24106e-20 8.86393 15.3241)
(-1.25479e-20 8.79893 15.1815)
(-6.59908e-21 8.78833 15.1998)
(9.3682e-20 8.79523 15.2013)
(7.00425e-20 8.7864 15.2093)
(6.81342e-20 8.78807 15.2119)
(6.5109e-20 8.78216 15.2186)
(7.17878e-20 8.7817 15.2224)
(6.94942e-20 8.77687 15.2287)
(6.91083e-20 8.7757 15.233)
(6.89279e-20 8.77099 15.2395)
(6.96006e-20 8.76965 15.2442)
(6.98631e-20 8.76521 15.251)
(7.19573e-20 8.76098 15.254)
(7.14122e-20 8.75537 15.2508)
(6.44973e-20 8.88044 15.4959)
(6.88552e-20 9.35163 16.3538)
(6.7582e-20 6.54202 11.5338)
(2.25354e-22 7.14698 12.3273)
(3.76117e-21 9.31587 16.033)
(3.00795e-21 8.83525 15.2666)
(3.03997e-21 8.78214 15.1473)
(1.11738e-21 8.7734 15.1637)
(-2.15151e-20 8.77976 15.1649)
(-1.68083e-20 8.77252 15.1718)
(-1.55282e-20 8.77428 15.1741)
(-1.56207e-20 8.76971 15.1798)
(-1.67896e-20 8.76968 15.1832)
(-1.64726e-20 8.76607 15.1886)
(-1.60262e-20 8.76563 15.1923)
(-1.61327e-20 8.762 15.198)
(-1.62405e-20 8.76184 15.2018)
(-1.62396e-20 8.75807 15.208)
(-1.6505e-20 8.75705 15.2113)
(-1.66748e-20 8.75094 15.2099)
(-1.5588e-20 8.82338 15.3477)
(-1.66697e-20 9.28388 16.1745)
(-1.46876e-20 6.98736 12.2592)
(-5.11529e-23 7.33002 12.6352)
(-8.7132e-22 9.26391 15.9452)
(-7.14522e-22 8.80729 15.2146)
(-7.26522e-22 8.76702 15.1197)
(-1.76389e-22 8.7595 15.1344)
(4.88436e-21 8.76527 15.1355)
(3.94899e-21 8.75929 15.1417)
(3.58779e-21 8.761 15.144)
(3.71525e-21 8.75752 15.1491)
(3.90645e-21 8.7577 15.1523)
(3.88893e-21 8.75508 15.1572)
(3.73243e-21 8.75513 15.1607)
(3.79988e-21 8.75236 15.1661)
(3.76404e-21 8.75303 15.1696)
(3.7521e-21 8.74992 15.1756)
(3.79288e-21 8.75056 15.1789)
(3.87168e-21 8.74547 15.1795)
(3.74744e-21 8.79242 15.2677)
(4.0227e-21 9.20908 16.0053)
(3.23204e-21 7.30421 12.7697)
(1.12954e-23 7.51469 12.9485)
(2.00388e-22 9.20552 15.8487)
(1.67054e-22 8.78107 15.1681)
(1.71448e-22 8.75266 15.0961)
(2.6373e-23 8.74588 15.1091)
(-1.1109e-21 8.751 15.1101)
(-9.15304e-22 8.74599 15.1158)
(-8.34465e-22 8.74748 15.1182)
(-8.72391e-22 8.74483 15.1228)
(-9.07367e-22 8.74497 15.1261)
(-9.14084e-22 8.74308 15.1307)
(-8.73699e-22 8.7433 15.1342)
(-8.97086e-22 8.74108 15.1394)
(-8.70564e-22 8.74228 15.1427)
(-8.69012e-22 8.73936 15.1488)
(-8.76196e-22 8.74124 15.152)
(-8.97516e-22 8.73651 15.1542)
(-8.97446e-22 8.76951 15.2151)
(-9.65124e-22 9.14102 15.8688)
(-7.16403e-22 7.53681 13.1508)
(-2.45407e-24 7.69775 13.26)
(-4.63777e-23 9.14182 15.744)
(-3.91e-23 8.7573 15.127)
(-4.04626e-23 8.73901 15.0747)
(-4.06764e-24 8.73268 15.0861)
(2.5551e-22 8.73712 15.0871)
(2.1245e-22 8.73291 15.0923)
(1.95095e-22 8.73402 15.0948)
(2.03082e-22 8.73203 15.0991)
(2.11472e-22 8.73197 15.1024)
(2.1375e-22 8.73061 15.1067)
(2.05042e-22 8.73077 15.1103)
(2.11535e-22 8.72896 15.1153)
(2.01975e-22 8.73037 15.1185)
(2.02779e-22 8.72742 15.1248)
(2.03973e-22 8.73034 15.1276)
(2.0866e-22 8.72525 15.1317)
(2.14271e-22 8.74971 15.1734)
(2.30019e-22 9.07507 15.7482)
(1.59754e-22 7.72978 13.4747)
(5.23783e-25 7.87895 13.5684)
(1.08407e-23 9.07333 15.6309)
(9.24437e-24 8.73626 15.091)
(9.61056e-24 8.72629 15.055)
(7.42239e-25 8.72022 15.0647)
(-5.94958e-23 8.72396 15.0659)
(-4.98684e-23 8.72052 15.0705)
(-4.58996e-23 8.72115 15.0732)
(-4.71274e-23 8.71969 15.0771)
(-4.95112e-23 8.71938 15.0805)
(-4.96751e-23 8.71841 15.0845)
(-4.80024e-23 8.71836 15.0881)
(-4.9632e-23 8.71696 15.0928)
(-4.70631e-23 8.71823 15.096)
(-4.76156e-23 8.71536 15.1023)
(-4.78039e-23 8.71897 15.1047)
(-4.86688e-23 8.71323 15.1105)
(-5.08745e-23 8.73216 15.1373)
(-5.43388e-23 9.00627 15.6283)
(-3.57542e-23 7.90857 13.7784)
(-1.08097e-25 8.05912 13.8746)
(-2.50227e-24 8.99977 15.5084)
(-2.16503e-24 8.71783 15.0597)
(-2.2546e-24 8.71459 15.0366)
(-1.48534e-25 8.70881 15.0447)
(1.3848e-23 8.71177 15.0461)
(1.1703e-23 8.70919 15.0501)
(1.07376e-23 8.70932 15.053)
(1.08376e-23 8.70832 15.0565)
(1.14959e-23 8.70783 15.0599)
(1.13774e-23 8.70713 15.0636)
(1.10633e-23 8.70686 15.0672)
(1.14488e-23 8.70588 15.0716)
(1.08826e-23 8.70672 15.0749)
(1.10964e-23 8.70426 15.0809)
(1.11186e-23 8.70797 15.0831)
(1.1243e-23 8.70173 15.0904)
(1.18633e-23 8.71696 15.1053)
(1.25543e-23 8.93311 15.5029)
(7.8633e-24 8.08299 14.075)
(2.10514e-26 8.23959 14.1803)
(5.49907e-25 8.92069 15.3749)
(4.84105e-25 8.70166 15.0324)
(5.05105e-25 8.70363 15.0189)
(2.3106e-26 8.69852 15.0253)
(-3.15739e-24 8.70035 15.0269)
(-2.67868e-24 8.69874 15.0302)
(-2.44507e-24 8.69841 15.033)
(-2.43361e-24 8.69771 15.0361)
(-2.59464e-24 8.69713 15.0394)
(-2.53635e-24 8.69658 15.0428)
(-2.47046e-24 8.69618 15.0464)
(-2.55533e-24 8.69557 15.0504)
(-2.44995e-24 8.69587 15.054)
(-2.51686e-24 8.69426 15.0594)
(-2.51183e-24 8.69726 15.0619)
(-2.52249e-24 8.69129 15.0701)
(-2.67115e-24 8.70425 15.0762)
(-2.78546e-24 8.85559 15.3705)
(-1.64609e-24 8.25513 14.3661)
(-3.81599e-27 8.42317 14.4926)
(-1.07387e-25 8.8381 15.2311)
(-9.6064e-26 8.69069 15.012)
(-1.01216e-25 8.69522 15.0051)
(1.59043e-27 8.69182 15.0089)
(6.75505e-25 8.69213 15.0105)
(5.57906e-25 8.69115 15.0126)
(5.0608e-25 8.69036 15.0148)
(5.08618e-25 8.68952 15.0171)
(5.38462e-25 8.68863 15.0197)
(5.27716e-25 8.68775 15.0224)
(5.08469e-25 8.68689 15.0254)
(5.26363e-25 8.68605 15.0287)
(5.11123e-25 8.68543 15.0321)
(5.31231e-25 8.68433 15.0364)
(5.19403e-25 8.68532 15.0397)
(5.18746e-25 8.68104 15.0469)
(5.54923e-25 8.69107 15.0483)
(5.56849e-25 8.77265 15.2324)
(2.89499e-25 8.42326 14.6449)
(6.12047e-28 8.61058 14.8239)
(1.7863e-26 8.75271 15.0801)
(1.559e-26 8.69281 15.0032)
(1.66557e-26 8.695 15.0014)
(-3.60162e-28 8.69442 15.0021)
(-1.15739e-25 8.69407 15.0026)
(-9.36416e-26 8.69366 15.0031)
(-8.41772e-26 8.69305 15.0038)
(-8.64647e-26 8.69232 15.0046)
(-9.09499e-26 8.69143 15.0056)
(-8.94935e-26 8.69038 15.0067)
(-8.45185e-26 8.68914 15.008)
(-8.7829e-26 8.68772 15.0095)
(-8.7097e-26 8.68604 15.0113)
(-9.10116e-26 8.68417 15.0133)
(-8.65313e-26 8.68208 15.0156)
(-8.61898e-26 8.67892 15.0189)
(-9.30074e-26 8.67938 15.02)
(-9.28206e-26 8.69418 15.0844)
(-4.27526e-26 8.5934 14.8933)
(6.48593e-15 -0.192335 -2.95254)
(8.37995e-15 -0.162454 -3.84573)
(6.34955e-15 0.0107649 -2.8945)
(6.50511e-15 0.125395 -2.82845)
(6.25381e-15 0.278131 -2.62545)
(9.3596e-15 0.125453 -3.86726)
(7.08041e-15 0.0997081 -3.28282)
(7.04341e-15 0.273175 -3.22799)
(7.88747e-15 0.404642 -2.97495)
(6.08939e-15 0.747588 -2.57214)
(2.80786e-15 -0.308203 3.96979)
(3.66123e-15 -0.429056 3.92418)
(5.23307e-15 -0.893406 7.98994)
(4.36927e-15 -1.856 8.60527)
(3.84965e-15 -2.4018 8.53355)
(3.34258e-15 -2.75646 8.71993)
(3.37037e-15 -4.21618 12.6748)
(1.75625e-15 -4.49882 10.2475)
(1.28652e-15 -5.18156 10.6422)
(1.41026e-15 -7.82637 14.9671)
(1.6755e-15 -6.29349 12.8468)
(1.17331e-15 -6.58148 13.6742)
(1.20319e-15 -6.47107 13.5162)
(1.11343e-15 -6.59327 13.6586)
(1.19309e-15 -6.59636 13.7029)
(1.27086e-15 -6.64934 13.7984)
(1.37234e-15 -6.65089 13.8918)
(1.45533e-15 -6.71354 13.9525)
(1.23693e-15 -5.63784 13.0498)
(1.7402e-15 -6.08783 13.0374)
(1.77565e-15 -5.92997 13.0013)
(1.71245e-15 -5.96814 12.9518)
(1.6023e-15 -5.87838 12.9244)
(1.44699e-15 -5.82144 12.9427)
(1.20853e-15 -5.70791 12.9947)
(9.50784e-16 -5.5544 13.0046)
(8.08688e-16 -5.34071 12.7418)
(5.83052e-16 -5.06323 11.7102)
(-2.3106e-16 -0.320665 0.34104)
(-1.39304e-16 -3.68683 3.50245)
(-2.54321e-16 -0.857002 -2.8796)
(-4.15693e-16 -5.37562 0.767919)
(-4.6308e-16 -3.18278 -0.61911)
(-4.43097e-16 -3.38122 -0.476497)
(-6.35135e-16 -4.21296 -0.805365)
(-5.40347e-16 -2.99149 -0.783242)
(-8.04405e-16 -3.74065 -1.12005)
(-8.58726e-16 -3.30028 -1.26345)
(-9.02734e-16 -2.62799 -1.04674)
(-1.24475e-15 -3.33836 -1.32893)
(-1.1736e-15 -2.01571 -0.974808)
(-1.49811e-15 -2.54097 -1.41536)
(-1.46295e-15 -1.62802 -1.32777)
(-1.35974e-15 -1.03045 -1.03072)
(-1.15698e-15 -1.16104 -1.79964)
(-9.63351e-16 -0.385947 -1.19477)
(-7.53246e-16 0.211171 -0.686467)
(-2.18945e-15 0.179165 1.10827)
(-1.05544e-15 0.229476 1.1287)
(-7.11283e-15 0.303475 2.08421)
(-2.69135e-18 0.220496 -1.12521)
(-2.56869e-18 0.0759377 -2.72565)
(-7.64899e-19 -0.190364 -2.64717)
(-7.44857e-19 -0.173989 -0.16034)
(-1.40752e-17 0.0933475 1.65115)
(-1.87834e-17 0.166359 0.90325)
(1.67595e-17 0.0239671 0.554322)
(1.57932e-16 -0.077362 1.33199)
(6.24837e-16 -0.207521 2.89016)
(1.68991e-15 -0.355799 5.87699)
(3.39538e-15 -0.183776 8.51354)
(4.90557e-15 0.121726 8.22876)
(5.63505e-15 0.288624 5.67364)
(6.11552e-15 0.335951 2.44446)
(6.44922e-15 0.527052 -1.65299)
(6.64238e-15 0.606023 -7.09094)
(6.37233e-15 -0.0312819 -12.038)
(3.77262e-15 -0.759704 -8.53746)
(-1.07648e-15 -0.321149 0.766274)
(-1.24665e-17 0.618692 -1.09568)
(-1.73381e-17 0.246149 -2.6293)
(-8.59074e-18 -0.369913 -3.04962)
(-1.19432e-18 -0.659586 -1.79202)
(-2.02518e-17 -0.279743 1.66398)
(-2.4372e-17 0.0298229 3.27436)
(1.04776e-16 -0.14308 3.78151)
(4.73424e-16 -0.387807 4.77922)
(1.36738e-15 -0.647905 6.58056)
(3.01251e-15 -0.796241 9.01469)
(4.99329e-15 -0.250522 10.1731)
(5.83808e-15 0.460193 8.73471)
(5.91744e-15 0.86991 6.33558)
(6.44348e-15 1.0917 3.0257)
(7.65474e-15 1.56023 -0.953419)
(8.46117e-15 1.6475 -6.40432)
(9.00326e-15 0.198028 -10.2177)
(6.68194e-15 -1.78051 -11.6034)
(6.52595e-16 -1.61086 -2.87797)
(-3.18857e-17 0.995584 -1.04179)
(-5.11856e-17 0.413948 -2.48783)
(-3.01707e-17 -0.439242 -2.59291)