/*--------------------------------*- C++ -*----------------------------------*\
| =========                 |                                                 |
| \\      /  F ield         | OpenFOAM: The Open Source CFD Toolbox           |
|  \\    /   O peration     | Version:  4.1                                   |
|   \\  /    A nd           | Web:      www.OpenFOAM.org                      |
|    \\/     M anipulation  |                                                 |
\*---------------------------------------------------------------------------*/
FoamFile
{
    version     2.0;
    format      ascii;
    class       volScalarField;
    location    "28";
    object      p;
}
// * * * * * * * * * * * * * * * * * * * * * * * * * * * * * * * * * * * * * //

dimensions      [0 2 -2 0 0 0 0];

internalField   nonuniform List<scalar> 
1280
(
-1.7932e+14
-1.30806e+14
-1.33813e+14
-1.77117e+14
-1.92208e+14
-2.0441e+14
-2.28272e+14
-2.48583e+14
-2.58431e+14
-2.71895e+14
-3.0195e+14
-3.14751e+14
-3.26099e+14
-3.56819e+14
-3.70544e+14
-3.81435e+14
-4.12954e+14
-4.25024e+14
-4.41131e+14
-4.62237e+14
-4.79946e+14
-4.94257e+14
-5.11392e+14
-5.26299e+14
-5.39237e+14
-5.56051e+14
-6.0592e+14
-5.97517e+14
-6.07952e+14
-6.2443e+14
-6.38904e+14
-6.53229e+14
-6.67987e+14
-6.82911e+14
-6.97937e+14
-7.13403e+14
-7.28769e+14
-7.4535e+14
-7.60465e+14
-7.79754e+14
-9.13854e+14
-8.5549e+14
-8.69891e+14
-9.10375e+14
-9.24203e+14
-9.6597e+14
-1.01703e+15
-1.06198e+15
-1.08408e+15
-1.13067e+15
-1.21813e+15
-1.25131e+15
-1.31721e+15
-1.40253e+15
-1.48057e+15
-1.51309e+15
-1.60652e+15
-1.7111e+15
-1.81176e+15
-1.82158e+15
-1.98397e+15
-2.03301e+15
-2.12006e+15
-2.19999e+15
-2.27529e+15
-2.35027e+15
-2.42428e+15
-2.49713e+15
-2.56984e+15
-2.64106e+15
-2.7149e+15
-2.78261e+15
-2.86543e+15
-3.27026e+15
-3.17732e+15
-3.28533e+15
-3.43008e+15
-3.56708e+15
-3.70138e+15
-3.87112e+15
-4.20049e+15
-4.18479e+15
-4.19368e+15
-4.53604e+15
-5.00479e+15
-5.22163e+15
-5.70208e+15
-6.47903e+15
-6.72457e+15
-7.32809e+15
-8.58469e+15
-9.34099e+15
-1.26816e+16
-1.46841e+16
-1.7429e+16
-1.26662e+16
-7.56607e+16
-5.92668e+16
2.39622e+15
6.65865e+15
1.18935e+13
1.51536e+12
5.82187e+12
6.12198e+12
1.08444e+13
1.69823e+13
2.75893e+13
4.46372e+13
7.27583e+13
1.19326e+14
1.97377e+14
3.2914e+14
5.48661e+14
9.09398e+14
1.49927e+15
2.44344e+15
5.81778e+15
1.25643e+16
-6.26904e+16
-5.299e+12
-7.2113e+11
-1.94056e+12
-2.73966e+12
-5.30886e+12
-8.71067e+12
-1.47464e+13
-2.47137e+13
-4.2093e+13
-7.4026e+13
-1.36213e+14
-2.62744e+14
-5.35982e+14
-1.07923e+15
-1.70329e+15
-2.06175e+15
-2.61979e+15
-2.64438e+13
-1.15334e+15
3.66209e+11
8.09756e+11
2.06364e+12
2.54945e+12
4.0491e+12
5.91322e+12
8.68973e+12
1.26034e+13
1.81902e+13
2.60344e+13
3.56851e+13
4.08858e+13
8.52544e+12
-1.34628e+14
-4.46943e+14
-8.12065e+14
-1.37887e+15
-4.29757e+15
-9.74054e+15
1.67551e+12
4.3417e+11
1.26057e+12
1.14613e+12
1.91505e+12
2.36246e+12
3.12184e+12
3.83164e+12
4.42644e+12
4.11173e+12
-5.80505e+11
-2.05589e+13
-8.98087e+13
-2.53584e+14
-4.75299e+14
-7.88123e+14
-1.26153e+15
-2.42894e+15
-4.28801e+15
1.0187e+12
5.8983e+11
9.58678e+11
8.00165e+11
1.07143e+12
1.06061e+12
9.3136e+11
1.6472e+11
-1.95437e+12
-7.30742e+12
-2.09882e+13
-5.5323e+13
-1.39586e+14
-2.90183e+14
-4.89257e+14
-7.62288e+14
-1.1958e+15
-2.37773e+15
-4.35384e+15
9.59703e+11
5.05112e+11
9.38319e+11
8.42004e+11
1.08777e+12
1.08498e+12
9.17811e+11
8.1854e+10
-2.20308e+12
-7.94364e+12
-2.21115e+13
-5.54721e+13
-1.31038e+14
-2.57467e+14
-4.33222e+14
-6.98903e+14
-1.09481e+15
-1.86794e+15
-3.05002e+15
9.53528e+11
3.46813e+11
7.97252e+11
6.67878e+11
8.20011e+11
6.78344e+11
3.08111e+11
-8.4579e+11
-3.64531e+12
-1.02942e+13
-2.56582e+13
-5.94114e+13
-1.27734e+14
-2.40856e+14
-4.05195e+14
-6.47732e+14
-9.92052e+14
-1.59204e+15
-2.49861e+15
8.58009e+11
2.5228e+11
6.57573e+11
4.92251e+11
5.47253e+11
2.76014e+11
-3.05548e+11
-1.84001e+12
-5.31451e+12
-1.2974e+13
-2.92421e+13
-6.25028e+13
-1.22484e+14
-2.22269e+14
-3.69496e+14
-5.84479e+14
-8.82581e+14
-1.31369e+15
-1.90037e+15
7.51912e+11
1.85371e+11
5.46314e+11
3.5921e+11
3.54171e+11
-3.80898e+09
-7.49018e+11
-2.55032e+12
-6.41151e+12
-1.44798e+13
-3.06978e+13
-6.15127e+13
-1.15172e+14
-2.0429e+14
-3.37881e+14
-5.26664e+14
-7.80693e+14
-1.11654e+15
-1.54187e+15
6.47609e+11
1.309e+11
4.47359e+11
2.43889e+11
1.93429e+11
-2.36177e+11
-1.10301e+12
-3.06155e+12
-7.09818e+12
-1.51953e+13
-3.07953e+13
-5.89271e+13
-1.07826e+14
-1.87917e+14
-3.06134e+14
-4.69518e+14
-6.84218e+14
-9.45774e+14
-1.24916e+15
5.44607e+11
8.88411e+10
3.61896e+11
1.45818e+11
5.49312e+10
-4.21352e+11
-1.35731e+12
-3.37604e+12
-7.42203e+12
-1.52858e+13
-2.98635e+13
-5.58809e+13
-1.0047e+14
-1.71789e+14
-2.75734e+14
-4.16324e+14
-5.96485e+14
-8.05729e+14
-1.03189e+15
4.48948e+11
5.62228e+10
2.90417e+11
6.78114e+10
-5.3899e+10
-5.43699e+11
-1.49647e+12
-3.49237e+12
-7.40372e+12
-1.48452e+13
-2.84904e+13
-5.25993e+13
-9.29452e+13
-1.55933e+14
-2.46496e+14
-3.66324e+14
-5.1667e+14
-6.84571e+14
-8.5688e+14
3.64339e+11
3.06773e+10
2.29568e+11
9.6568e+09
-1.29974e+11
-6.04767e+11
-1.53298e+12
-3.4341e+12
-7.13931e+12
-1.41687e+13
-2.69488e+13
-4.89987e+13
-8.50736e+13
-1.40281e+14
-2.18578e+14
-3.19876e+14
-4.44615e+14
-5.7772e+14
-7.18437e+14
2.93336e+11
1.14408e+10
1.77346e+11
-2.88882e+10
-1.73383e+11
-6.11972e+11
-1.48175e+12
-3.2688e+12
-6.77483e+12
-1.33719e+13
-2.50877e+13
-4.49297e+13
-7.68435e+13
-1.24759e+14
-1.91801e+14
-2.7659e+14
-3.79153e+14
-4.79038e+14
-5.83023e+14
2.3022e+11
-1.77047e+09
1.3212e+11
-5.08909e+10
-1.89113e+11
-5.73058e+11
-1.37756e+12
-3.0632e+12
-6.33442e+12
-1.23465e+13
-2.28935e+13
-4.04984e+13
-6.8378e+13
-1.0955e+14
-1.66488e+14
-2.37046e+14
-3.21172e+14
-3.97844e+14
-4.75201e+14
1.83127e+11
-8.63693e+09
9.60257e+10
-5.80684e+10
-1.7741e+11
-5.13551e+11
-1.26414e+12
-2.82318e+12
-5.79278e+12
-1.11978e+13
-2.05751e+13
-3.60228e+13
-6.01834e+13
-9.53676e+13
-1.43526e+14
-2.02094e+14
-2.71124e+14
-3.30973e+14
-3.90124e+14
1.26615e+11
-1.34659e+10
6.44876e+10
-5.71792e+10
-1.5375e+11
-4.45934e+11
-1.12236e+12
-2.48986e+12
-5.07421e+12
-9.7256e+12
-1.77065e+13
-3.06999e+13
-5.07853e+13
-7.96474e+13
-1.18742e+14
-1.65377e+14
-2.19819e+14
-2.64251e+14
-3.11191e+14
1.2141e+11
-9.76521e+09
4.6671e+10
-4.05842e+10
-1.22649e+11
-3.53911e+11
-8.96848e+11
-1.98237e+12
-4.02318e+12
-7.67132e+12
-1.38886e+13
-2.39345e+13
-3.93583e+13
-6.13486e+13
-9.10085e+13
-1.25935e+14
-1.66783e+14
-1.9742e+14
-2.36619e+14
-3.4059e+09
-1.25097e+10
1.58527e+10
-3.72257e+10
-1.08375e+11
-3.35548e+11
-8.97684e+11
-2.03328e+12
-4.17458e+12
-8.00689e+12
-1.45437e+13
-2.51136e+13
-4.1355e+13
-6.4541e+13
-9.58557e+13
-1.32756e+14
-1.75712e+14
-2.05157e+14
-2.40839e+14
2.07384e+11
2.42403e+08
4.53411e+10
2.74166e+08
-8.29692e+10
-3.47394e+11
-9.53687e+11
-2.1638e+12
-4.43219e+12
-8.47201e+12
-1.53274e+13
-2.63549e+13
-4.3185e+13
-6.70676e+13
-9.89675e+13
-1.3631e+14
-1.78419e+14
-2.06123e+14
-2.37879e+14
-6.2445e+14
-6.2141e+14
-6.19894e+14
-6.18855e+14
-6.17926e+14
-6.17189e+14
-6.17171e+14
-6.17536e+14
-6.17705e+14
-6.18045e+14
-6.18635e+14
-6.19428e+14
-6.20401e+14
-6.21533e+14
-6.22805e+14
-6.24232e+14
-6.25735e+14
-6.27503e+14
-6.29041e+14
-6.31745e+14
-6.18137e+14
-6.18373e+14
-6.18384e+14
-6.18309e+14
-6.18253e+14
-6.18205e+14
-6.18199e+14
-6.18255e+14
-6.1834e+14
-6.18464e+14
-6.18631e+14
-6.18836e+14
-6.19073e+14
-6.19342e+14
-6.19642e+14
-6.19967e+14
-6.20295e+14
-6.20648e+14
-6.20948e+14
-6.21393e+14
-6.17684e+14
-6.17705e+14
-6.17682e+14
-6.1768e+14
-6.17691e+14
-6.17702e+14
-6.17711e+14
-6.17724e+14
-6.17743e+14
-6.17768e+14
-6.178e+14
-6.17839e+14
-6.17888e+14
-6.17945e+14
-6.18009e+14
-6.18083e+14
-6.18161e+14
-6.18252e+14
-6.1833e+14
-6.18455e+14
-6.17604e+14
-6.1761e+14
-6.1762e+14
-6.17629e+14
-6.1764e+14
-6.17654e+14
-6.1767e+14
-6.17687e+14
-6.17704e+14
-6.17722e+14
-6.17739e+14
-6.17756e+14
-6.17774e+14
-6.17793e+14
-6.17811e+14
-6.17831e+14
-6.17849e+14
-6.1787e+14
-6.17887e+14
-6.17914e+14
-6.17611e+14
-6.1761e+14
-6.17611e+14
-6.17611e+14
-6.17612e+14
-6.17614e+14
-6.17616e+14
-6.17619e+14
-6.17622e+14
-6.17626e+14
-6.17631e+14
-6.17637e+14
-6.17642e+14
-6.17649e+14
-6.17655e+14
-6.17662e+14
-6.17669e+14
-6.17677e+14
-6.17683e+14
-6.17693e+14
-6.17615e+14
-6.17615e+14
-6.17616e+14
-6.17617e+14
-6.17618e+14
-6.17619e+14
-6.1762e+14
-6.17621e+14
-6.17622e+14
-6.17624e+14
-6.17625e+14
-6.17627e+14
-6.17629e+14
-6.17631e+14
-6.17632e+14
-6.17634e+14
-6.17636e+14
-6.17638e+14
-6.1764e+14
-6.17643e+14
-6.17607e+14
-6.17607e+14
-6.17608e+14
-6.17608e+14
-6.17609e+14
-6.17609e+14
-6.1761e+14
-6.1761e+14
-6.17611e+14
-6.17611e+14
-6.17612e+14
-6.17613e+14
-6.17614e+14
-6.17614e+14
-6.17615e+14
-6.17616e+14
-6.17617e+14
-6.17618e+14
-6.17618e+14
-6.17619e+14
-6.17608e+14
-6.17608e+14
-6.17608e+14
-6.17608e+14
-6.17608e+14
-6.17609e+14
-6.17609e+14
-6.17609e+14
-6.17609e+14
-6.1761e+14
-6.1761e+14
-6.1761e+14
-6.1761e+14
-6.17611e+14
-6.17611e+14
-6.17611e+14
-6.17611e+14
-6.17612e+14
-6.17612e+14
-6.17612e+14
-6.17608e+14
-6.17608e+14
-6.17608e+14
-6.17608e+14
-6.17608e+14
-6.17608e+14
-6.17608e+14
-6.17608e+14
-6.17608e+14
-6.17608e+14
-6.17608e+14
-6.17608e+14
-6.17608e+14
-6.17608e+14
-6.17609e+14
-6.17609e+14
-6.17609e+14
-6.17609e+14
-6.17609e+14
-6.17609e+14
-6.17608e+14
-6.17608e+14
-6.17608e+14
-6.17608e+14
-6.17608e+14
-6.17608e+14
-6.17608e+14
-6.17608e+14
-6.17608e+14
-6.17608e+14
-6.17608e+14
-6.17608e+14
-6.17608e+14
-6.17608e+14
-6.17608e+14
-6.17608e+14
-6.17608e+14
-6.17608e+14
-6.17608e+14
-6.17608e+14
-6.17608e+14
-6.17608e+14
-6.17608e+14
-6.17608e+14
-6.17608e+14
-6.17608e+14
-6.17608e+14
-6.17608e+14
-6.17608e+14
-6.17608e+14
-6.17608e+14
-6.17608e+14
-6.17608e+14
-6.17608e+14
-6.17608e+14
-6.17608e+14
-6.17608e+14
-6.17608e+14
-6.17608e+14
-6.17608e+14
-6.17608e+14
-6.17608e+14
-6.17608e+14
-6.17608e+14
-6.17608e+14
-6.17608e+14
-6.17608e+14
-6.17608e+14
-6.17608e+14
-6.17608e+14
-6.17608e+14
-6.17608e+14
-6.17608e+14
-6.17608e+14
-6.17608e+14
-6.17608e+14
-6.17608e+14
-6.17608e+14
-6.17608e+14
-6.17608e+14
-6.17608e+14
-6.17608e+14
-6.17608e+14
-6.17608e+14
-6.17608e+14
-6.17608e+14
-6.17608e+14
-6.17608e+14
-6.17608e+14
-6.17608e+14
-6.17608e+14
-6.17608e+14
-6.17608e+14
-6.17608e+14
-6.17608e+14
-6.17608e+14
-6.17608e+14
-6.17608e+14
-6.17608e+14
-6.17608e+14
-6.17607e+14
-6.17607e+14
-6.17607e+14
-6.17607e+14
-6.17607e+14
-6.17607e+14
-6.17607e+14
-6.17607e+14
-6.17608e+14
-6.17608e+14
-6.17608e+14
-6.17608e+14
-6.17608e+14
-6.17608e+14
-6.17608e+14
-6.17608e+14
-6.17608e+14
-6.17608e+14
-6.17608e+14
-6.17608e+14
-6.17607e+14
-6.17607e+14
-6.17607e+14
-6.17607e+14
-6.17607e+14
-6.17607e+14
-6.17607e+14
-6.17607e+14
-6.17607e+14
-6.17607e+14
-6.17607e+14
-6.17607e+14
-6.17607e+14
-6.17607e+14
-6.17607e+14
-6.17607e+14
-6.17607e+14
-6.17607e+14
-6.17607e+14
-6.17607e+14
-6.17607e+14
-6.17607e+14
-6.17607e+14
-6.17607e+14
-6.17607e+14
-6.17607e+14
-6.17607e+14
-6.17607e+14
-6.17607e+14
-6.17607e+14
-6.17607e+14
-6.17607e+14
-6.17607e+14
-6.17607e+14
-6.17607e+14
-6.17607e+14
-6.17607e+14
-6.17607e+14
-6.17607e+14
-6.17607e+14
-6.17607e+14
-6.17607e+14
-6.17607e+14
-6.17607e+14
-6.17607e+14
-6.17607e+14
-6.17607e+14
-6.17607e+14
-6.17607e+14
-6.17607e+14
-6.17607e+14
-6.17607e+14
-6.17607e+14
-6.17607e+14
-6.17607e+14
-6.17607e+14
-6.17607e+14
-6.17607e+14
-6.17607e+14
-6.17607e+14
-6.17607e+14
-6.17607e+14
-6.17607e+14
-6.17607e+14
-6.17607e+14
-6.17607e+14
-6.17607e+14
-6.17607e+14
-6.17607e+14
-6.17607e+14
-6.17607e+14
-6.17607e+14
-6.17607e+14
-6.17607e+14
-6.17607e+14
-6.17607e+14
-6.17607e+14
-6.17607e+14
-6.17607e+14
-6.17607e+14
-6.17607e+14
-6.17607e+14
-6.17607e+14
-6.17607e+14
-6.17607e+14
-6.17607e+14
-6.17607e+14
-6.17607e+14
-6.17607e+14
-6.17607e+14
-6.17607e+14
-6.17607e+14
-6.17607e+14
-6.17607e+14
-6.17607e+14
-6.17607e+14
-6.17607e+14
-6.17607e+14
-6.17607e+14
-6.17607e+14
-6.17607e+14
-6.17607e+14
-6.17607e+14
-6.17607e+14
-6.17607e+14
-6.17607e+14
-6.17607e+14
-6.17607e+14
-6.17607e+14
-6.17607e+14
-6.17607e+14
-6.17607e+14
-6.17607e+14
-6.17607e+14
-6.17607e+14
-6.17607e+14
-6.17607e+14
-6.17607e+14
-6.17607e+14
-6.17607e+14
-2.65399e+15
-2.65399e+15
-2.65399e+15
-2.65399e+15
-2.65399e+15
-2.65399e+15
-2.65399e+15
-2.65399e+15
-2.65399e+15
-2.65399e+15
-2.65399e+15
-2.65399e+15
-2.65399e+15
-2.65399e+15
-2.65399e+15
-2.65399e+15
-2.65399e+15
-2.65399e+15
-2.65399e+15
-2.65399e+15
-2.65399e+15
-2.65399e+15
-2.65399e+15
-2.65399e+15
-2.65399e+15
-2.65399e+15
-2.65399e+15
-2.65399e+15
-2.65399e+15
-2.65399e+15
-2.65399e+15
-2.65399e+15
-2.65399e+15
-2.65399e+15
-2.65399e+15
-2.65399e+15
-2.65399e+15
-2.65399e+15
-2.65399e+15
-2.65399e+15
-2.654e+15
-2.654e+15
-2.654e+15
-2.654e+15
-2.654e+15
-2.654e+15
-2.654e+15
-2.654e+15
-2.654e+15
-2.654e+15
-2.654e+15
-2.654e+15
-2.654e+15
-2.654e+15
-2.654e+15
-2.654e+15
-2.654e+15
-2.654e+15
-2.654e+15
-2.654e+15
-2.654e+15
-2.654e+15
-2.654e+15
-2.654e+15
-2.654e+15
-2.654e+15
-2.654e+15
-2.654e+15
-2.654e+15
-2.654e+15
-2.654e+15
-2.654e+15
-2.654e+15
-2.654e+15
-2.654e+15
-2.654e+15
-2.654e+15
-2.654e+15
-2.654e+15
-2.654e+15
-2.65399e+15
-2.65399e+15
-2.65399e+15
-2.65399e+15
-2.65399e+15
-2.65399e+15
-2.65399e+15
-2.65399e+15
-2.65399e+15
-2.654e+15
-2.654e+15
-2.654e+15
-2.654e+15
-2.654e+15
-2.654e+15
-2.654e+15
-2.654e+15
-2.654e+15
-2.654e+15
-2.654e+15
-2.65399e+15
-2.654e+15
-2.654e+15
-2.654e+15
-2.654e+15
-2.654e+15
-2.654e+15
-2.654e+15
-2.654e+15
-2.654e+15
-2.654e+15
-2.654e+15
-2.654e+15
-2.654e+15
-2.654e+15
-2.654e+15
-2.654e+15
-2.654e+15
-2.654e+15
-2.654e+15
-2.654e+15
-2.654e+15
-2.654e+15
-2.654e+15
-2.654e+15
-2.654e+15
-2.654e+15
-2.654e+15
-2.654e+15
-2.654e+15
-2.654e+15
-2.654e+15
-2.654e+15
-2.654e+15
-2.654e+15
-2.654e+15
-2.654e+15
-2.654e+15
-2.654e+15
-2.654e+15
-2.654e+15
-2.654e+15
-2.654e+15
-2.654e+15
-2.654e+15
-2.654e+15
-2.654e+15
-2.654e+15
-2.654e+15
-2.654e+15
-2.654e+15
-2.654e+15
-2.654e+15
-2.654e+15
-2.654e+15
-2.654e+15
-2.654e+15
-2.654e+15
-2.654e+15
-2.654e+15
-2.654e+15
-2.654e+15
-2.654e+15
-2.654e+15
-2.654e+15
-2.654e+15
-2.654e+15
-2.654e+15
-2.654e+15
-2.654e+15
-2.654e+15
-2.654e+15
-2.654e+15
-2.654e+15
-2.654e+15
-2.654e+15
-2.654e+15
-2.654e+15
-2.654e+15
-2.654e+15
-2.654e+15
-2.654e+15
-2.654e+15
-2.654e+15
-2.654e+15
-2.654e+15
-2.654e+15
-2.654e+15
-2.654e+15
-2.654e+15
-2.654e+15
-2.654e+15
-2.654e+15
-2.654e+15
-2.654e+15
-2.654e+15
-2.654e+15
-2.654e+15
-2.654e+15
-2.654e+15
-2.654e+15
-2.654e+15
-2.654e+15
-2.654e+15
-2.654e+15
-2.654e+15
-2.654e+15
-2.654e+15
-2.654e+15
-2.654e+15
-2.654e+15
-2.654e+15
-2.654e+15
-2.654e+15
-2.654e+15
-2.654e+15
-2.654e+15
-2.654e+15
-2.654e+15
-2.654e+15
-2.654e+15
-2.654e+15
-2.654e+15
-2.654e+15
-2.654e+15
-2.654e+15
-2.654e+15
-2.654e+15
-2.654e+15
-2.654e+15
-2.654e+15
-2.654e+15
-2.654e+15
-2.654e+15
-2.654e+15
-2.654e+15
-2.654e+15
-2.654e+15
-2.654e+15
-2.654e+15
-2.654e+15
-2.654e+15
-2.654e+15
-2.654e+15
-2.654e+15
-2.654e+15
-2.654e+15
-2.654e+15
-2.654e+15
-2.654e+15
-2.654e+15
-2.654e+15
-2.654e+15
-2.654e+15
-2.654e+15
-2.654e+15
-2.654e+15
-2.654e+15
-2.654e+15
-2.654e+15
-2.654e+15
-2.654e+15
-2.65401e+15
-2.65401e+15
-2.65401e+15
-2.65401e+15
-2.65401e+15
-2.65401e+15
-2.65401e+15
-2.65401e+15
-2.65401e+15
-2.65401e+15
-2.654e+15
-2.654e+15
-2.654e+15
-2.654e+15
-2.654e+15
-2.654e+15
-2.65399e+15
-2.65399e+15
-2.65404e+15
-2.65404e+15
-2.65404e+15
-2.65404e+15
-2.65404e+15
-2.65405e+15
-2.65405e+15
-2.65405e+15
-2.65404e+15
-2.65404e+15
-2.65404e+15
-2.65403e+15
-2.65402e+15
-2.65402e+15
-2.65401e+15
-2.654e+15
-2.65399e+15
-2.65398e+15
-2.65398e+15
-2.65397e+15
-2.65409e+15
-2.65411e+15
-2.65412e+15
-2.65414e+15
-2.65415e+15
-2.65416e+15
-2.65416e+15
-2.65416e+15
-2.65416e+15
-2.65415e+15
-2.65414e+15
-2.65411e+15
-2.65409e+15
-2.65406e+15
-2.65403e+15
-2.654e+15
-2.65397e+15
-2.65395e+15
-2.65393e+15
-2.65391e+15
-2.65465e+15
-2.6547e+15
-2.65473e+15
-2.65476e+15
-2.65479e+15
-2.6548e+15
-2.6548e+15
-2.65479e+15
-2.65476e+15
-2.65471e+15
-2.65465e+15
-2.65456e+15
-2.65446e+15
-2.65435e+15
-2.65422e+15
-2.65409e+15
-2.65396e+15
-2.65386e+15
-2.65376e+15
-2.6537e+15
-2.65547e+15
-2.65586e+15
-2.65609e+15
-2.65635e+15
-2.65656e+15
-2.65672e+15
-2.6568e+15
-2.6568e+15
-2.6567e+15
-2.65649e+15
-2.65618e+15
-2.65576e+15
-2.65526e+15
-2.65473e+15
-2.65415e+15
-2.65355e+15
-2.65299e+15
-2.65247e+15
-2.65204e+15
-2.65205e+15
-2.66547e+15
-2.66588e+15
-2.66633e+15
-2.66658e+15
-2.66663e+15
-2.66636e+15
-2.66577e+15
-2.6649e+15
-2.6638e+15
-2.6625e+15
-2.66113e+15
-2.65982e+15
-2.65858e+15
-2.6574e+15
-2.65634e+15
-2.65544e+15
-2.65475e+15
-2.65422e+15
-2.65372e+15
-2.65407e+15
-2.67199e+15
-2.68487e+15
-2.69147e+15
-2.69774e+15
-2.7015e+15
-2.70396e+15
-2.70488e+15
-2.70397e+15
-2.70189e+15
-2.69925e+15
-2.69624e+15
-2.69321e+15
-2.69034e+15
-2.68771e+15
-2.68542e+15
-2.68352e+15
-2.68218e+15
-2.68145e+15
-2.68099e+15
-2.68193e+15
)
;

boundaryField
{
    outletWall
    {
        type            fixedValue;
        value           uniform 0;
    }
    fineWalls
    {
        type            zeroGradient;
    }
    fineFrontAndBack
    {
        type            zeroGradient;
    }
    fineplugLeft
    {
        type            cyclicAMI;
        value           nonuniform List<scalar> 
20
(
-6.61347e+14
-6.55326e+14
-6.51072e+14
-6.46342e+14
-6.42066e+14
-6.37831e+14
-6.33809e+14
-6.29918e+14
-6.26188e+14
-6.22689e+14
-6.19322e+14
-6.15754e+14
-6.13532e+14
-6.15892e+14
-6.04962e+14
-6.02188e+14
-6.00344e+14
-5.98193e+14
-5.95979e+14
-5.95549e+14
)
;
    }
    fineplugRight
    {
        type            cyclicAMI;
        value           nonuniform List<scalar> 
20
(
-2.54234e+15
-2.55139e+15
-2.56917e+15
-2.58574e+15
-2.60187e+15
-2.61839e+15
-2.63503e+15
-2.6517e+15
-2.66853e+15
-2.68521e+15
-2.70238e+15
-2.71804e+15
-2.73626e+15
-2.76917e+15
-2.79863e+15
-2.81827e+15
-2.8442e+15
-2.86659e+15
-2.88817e+15
-2.91181e+15
)
;
    }
    inletOutletLeft
    {
        type            cyclicAMI;
        value           nonuniform List<scalar> 
20
(
-6.61347e+14
-6.55326e+14
-6.51072e+14
-6.46342e+14
-6.42066e+14
-6.37831e+14
-6.33809e+14
-6.29918e+14
-6.26188e+14
-6.22689e+14
-6.19322e+14
-6.15754e+14
-6.13532e+14
-6.15892e+14
-6.04962e+14
-6.02188e+14
-6.00344e+14
-5.98193e+14
-5.95979e+14
-5.95549e+14
)
;
    }
    inletLeft
    {
        type            zeroGradient;
    }
    inletWallsLeft
    {
        type            zeroGradient;
    }
    inletFacesLeft
    {
        type            zeroGradient;
    }
    inletOutletRight
    {
        type            cyclicAMI;
        value           nonuniform List<scalar> 
20
(
-2.54234e+15
-2.55139e+15
-2.56917e+15
-2.58574e+15
-2.60187e+15
-2.61839e+15
-2.63503e+15
-2.6517e+15
-2.66853e+15
-2.68521e+15
-2.70238e+15
-2.71804e+15
-2.73626e+15
-2.76917e+15
-2.79863e+15
-2.81827e+15
-2.8442e+15
-2.86659e+15
-2.88817e+15
-2.91181e+15
)
;
    }
    inletRight
    {
        type            zeroGradient;
    }
    inletWallsRight
    {
        type            zeroGradient;
    }
    inletFacesRight
    {
        type            zeroGradient;
    }
}


// ************************************************************************* //
