/*--------------------------------*- C++ -*----------------------------------*\
| =========                 |                                                 |
| \\      /  F ield         | OpenFOAM: The Open Source CFD Toolbox           |
|  \\    /   O peration     | Version:  4.1                                   |
|   \\  /    A nd           | Web:      www.OpenFOAM.org                      |
|    \\/     M anipulation  |                                                 |
\*---------------------------------------------------------------------------*/
FoamFile
{
    version     2.0;
    format      ascii;
    class       surfaceScalarField;
    location    "28";
    object      phi;
}
// * * * * * * * * * * * * * * * * * * * * * * * * * * * * * * * * * * * * * //

dimensions      [0 3 -1 0 0 0 0];

internalField   nonuniform List<scalar> 
2360
(
2.38557e+10
2.1836e+10
2.0193e+09
2.18367e+10
2.18361e+10
1.98715e+10
1.96533e+09
1.9871e+10
1.98715e+10
1.98711e+10
1.9754e+10
1.17509e+08
1.97539e+10
1.97545e+10
2.00185e+10
-2.64191e+08
2.00189e+10
2.00185e+10
2.01688e+10
-1.49631e+08
2.01687e+10
2.01696e+10
1.97413e+10
4.28102e+08
1.97418e+10
1.97412e+10
1.94995e+10
1.92755e+10
1.90818e+10
1.89076e+10
1.87571e+10
1.86237e+10
1.8793e+10
-2.4969e+08
1.87314e+10
1.86744e+10
1.86306e+10
1.86065e+10
1.86049e+10
1.8631e+10
1.86891e+10
1.87819e+10
1.8915e+10
1.90903e+10
1.93209e+10
1.9609e+10
2.00012e+10
2.4205e+10
-4.20356e+09
2.42049e+10
2.42049e+10
2.42049e+10
2.86244e+10
-4.41932e+09
2.86242e+10
2.86246e+10
2.86243e+10
3.31639e+10
-4.53898e+09
3.31638e+10
3.31642e+10
3.75787e+10
-4.41461e+09
3.75791e+10
3.75792e+10
3.75796e+10
4.20035e+10
-4.42398e+09
4.20041e+10
4.20042e+10
4.20047e+10
4.52693e+10
-3.26466e+09
4.44605e+10
4.36554e+10
4.29761e+10
4.24079e+10
4.19381e+10
4.15601e+10
4.12708e+10
4.10672e+10
4.09471e+10
4.09122e+10
4.09613e+10
4.10893e+10
4.12861e+10
5.2142e+10
-1.05884e+10
5.24786e+10
5.2897e+10
5.34084e+10
5.40354e+10
5.47977e+10
5.58633e+10
5.58636e+10
5.58644e+10
7.50444e+10
-1.91802e+10
7.50447e+10
7.50444e+10
9.74296e+10
-2.23851e+10
9.74294e+10
9.74295e+10
1.23696e+11
-2.62663e+10
1.23696e+11
1.23696e+11
1.88231e+11
-6.45355e+10
1.88231e+11
1.88232e+11
1.88231e+11
-3.85289e+11
5.7352e+11
-3.85289e+11
-3.85289e+11
1.49658e+11
-5.34947e+11
-7.51174e+09
-3.54337e+08
-6.93166e+09
-1.39614e+09
-9.8483e+09
2.65382e+08
-1.22546e+10
1.65804e+08
-1.56298e+10
2.63498e+08
-1.9849e+10
3.81961e+08
-2.53095e+10
5.71702e+08
-3.23476e+10
8.49221e+08
-4.14585e+10
1.24015e+09
-5.32655e+10
1.75984e+09
-6.86301e+10
2.46635e+09
-8.89003e+10
3.66554e+09
-1.16412e+11
6.37408e+09
-1.5451e+11
1.17014e+10
-2.04581e+11
1.72041e+10
-2.61954e+11
1.55392e+10
-3.20057e+11
-1.88791e+10
-2.67645e+11
-1.78668e+11
-4.61781e+11
-1.97217e+09
2.7957e+09
-1.84439e+09
-1.52396e+09
-2.45003e+09
8.70986e+08
-3.07989e+09
7.95602e+08
-4.37055e+09
1.55411e+09
-5.86966e+09
1.88101e+09
-7.8709e+09
2.5729e+09
-1.04392e+10
3.41741e+09
-1.38647e+10
4.66566e+09
-1.87415e+10
6.63659e+09
-2.6171e+10
9.89581e+09
-3.74628e+10
1.49573e+10
-5.26348e+10
2.1546e+10
-6.81479e+10
2.72145e+10
-7.66185e+10
2.56749e+10
-7.96787e+10
1.85995e+10
-1.28312e+11
2.97545e+10
-2.82349e+11
-2.46311e+10
-1.7061e+11
-1.74124e+08
2.88128e+09
-1.29268e+09
-4.05438e+08
-1.42347e+09
1.00178e+09
-1.89931e+09
1.27144e+09
-2.43422e+09
2.08905e+09
-3.17081e+09
2.61761e+09
-4.09657e+09
3.4987e+09
-5.31379e+09
4.63466e+09
-6.98016e+09
6.33209e+09
-9.35835e+09
9.01483e+09
-1.27151e+10
1.32526e+10
-1.68297e+10
1.9072e+10
-1.99434e+10
2.466e+10
-1.71032e+10
2.43744e+10
-3.06445e+09
1.16364e+10
1.68904e+10
-1.35514e+09
5.34765e+10
-6.83122e+09
9.43096e+10
-6.5464e+10
-1.40835e+11
4.31605e+08
2.03237e+09
-7.77507e+08
8.03634e+08
-1.0464e+09
1.27066e+09
-1.34865e+09
1.57368e+09
-1.59393e+09
2.33434e+09
-1.97479e+09
2.99847e+09
-2.43461e+09
3.95854e+09
-3.03409e+09
5.23414e+09
-3.79532e+09
7.09336e+09
-4.6679e+09
9.88743e+09
-5.37273e+09
1.39575e+10
-5.02711e+09
1.87264e+10
-1.7921e+09
2.14251e+10
7.8682e+09
1.47143e+10
2.07312e+10
-1.22621e+09
3.2075e+10
-1.26988e+10
4.32489e+10
-1.80049e+10
3.89656e+10
-6.11804e+10
-1.28136e+11
1.94557e+07
1.65317e+09
-4.88023e+08
1.31109e+09
-7.11722e+08
1.49437e+09
-8.73439e+08
1.73541e+09
-9.84366e+08
2.44531e+09
-1.12217e+09
3.1363e+09
-1.26404e+09
4.10047e+09
-1.40274e+09
5.37289e+09
-1.47024e+09
7.16095e+09
-1.24049e+09
9.65775e+09
-1.5541e+08
1.28726e+10
2.61259e+09
1.59586e+10
7.96942e+09
1.60685e+10
1.62615e+10
6.42243e+09
2.31138e+10
-8.07837e+09
2.90138e+10
-1.85986e+10
3.88607e+10
-2.78515e+10
3.90246e+10
-6.13439e+10
-1.11496e+11
-2.53697e+08
1.54553e+09
-4.09825e+08
1.46721e+09
-5.06854e+08
1.59143e+09
-5.94276e+08
1.82287e+09
-6.10414e+08
2.46151e+09
-5.98439e+08
3.12439e+09
-5.26942e+08
4.02907e+09
-3.43278e+08
5.18931e+09
8.58966e+07
6.73191e+09
1.02098e+09
8.72279e+09
2.98425e+09
1.09095e+10
6.45982e+09
1.24832e+10
1.22779e+10
1.02507e+10
1.85534e+10
1.47283e+08
2.22478e+10
-1.17724e+10
2.54049e+10
-2.17555e+10
2.9697e+10
-3.21432e+10
2.84336e+10
-6.00801e+10
-1.02242e+11
-3.55306e+08
1.54069e+09
-3.40737e+08
1.45262e+09
-3.64088e+08
1.6148e+09
-3.90943e+08
1.84975e+09
-3.36286e+08
2.4069e+09
-2.20884e+08
3.00902e+09
9.84233e+06
3.79841e+09
4.27619e+08
4.77158e+09
1.17622e+09
5.98339e+09
2.4949e+09
7.40418e+09
4.79805e+09
8.60647e+09
8.40547e+09
8.87587e+09
1.37343e+10
4.92204e+09
1.84039e+10
-4.52231e+09
2.04867e+10
-1.38551e+10
2.22723e+10
-2.35409e+10
2.48847e+10
-3.47553e+10
2.20628e+10
-5.72578e+10
-9.0767e+10
-3.62595e+08
1.57963e+09
-2.59165e+08
1.34921e+09
-2.45464e+08
1.60116e+09
-2.1829e+08
1.82266e+09
-1.05925e+08
2.29465e+09
9.98538e+07
2.80336e+09
4.58027e+08
3.44039e+09
1.04524e+09
4.18453e+09
1.99285e+09
5.03597e+09
3.51903e+09
5.8782e+09
5.86343e+09
6.26234e+09
9.5327e+09
5.20691e+09
1.39535e+10
5.01651e+08
1.68393e+10
-7.40781e+09
1.83968e+10
-1.54123e+10
1.94652e+10
-2.46089e+10
2.03141e+10
-3.56037e+10
1.60226e+10
-5.29658e+10
-7.80082e+10
-3.17652e+08
1.61279e+09
-1.87394e+08
1.21893e+09
-1.45023e+08
1.5588e+09
-7.28108e+07
1.75045e+09
9.08347e+07
2.13103e+09
3.73633e+08
2.52058e+09
8.26367e+08
2.98771e+09
1.52847e+09
3.48245e+09
2.59655e+09
3.96798e+09
4.21842e+09
4.25638e+09
6.58212e+09
3.89875e+09
1.00546e+10
1.73454e+09
1.34924e+10
-2.93614e+09
1.53552e+10
-9.27058e+09
1.64576e+10
-1.65146e+10
1.70666e+10
-2.52179e+10
1.71297e+10
-3.56666e+10
1.38826e+10
-4.97184e+10
-6.85495e+10
-2.54902e+08
1.61879e+09
-1.27317e+08
1.09139e+09
-5.97272e+07
1.49129e+09
5.34819e+07
1.63736e+09
2.59845e+08
1.92483e+09
6.01548e+08
2.17905e+09
1.12345e+09
2.46602e+09
1.90357e+09
2.70255e+09
3.05477e+09
2.81705e+09
4.72604e+09
2.5854e+09
7.16181e+09
1.46335e+09
1.00433e+10
-1.14666e+09
1.23034e+10
-5.19583e+09
1.37021e+10
-1.0669e+10
1.45745e+10
-1.73867e+10
1.48985e+10
-2.55414e+10
1.44098e+10
-3.51773e+10
1.16135e+10
-4.69215e+10
-6.13498e+10
-1.92869e+08
1.5959e+09
-7.68116e+07
9.75295e+08
1.29063e+07
1.40157e+09
1.64294e+08
1.48597e+09
4.03369e+08
1.68577e+09
7.87445e+08
1.79498e+09
1.3628e+09
1.89071e+09
2.2044e+09
1.86095e+09
3.42476e+09
1.59674e+09
5.16811e+09
8.42067e+08
7.34449e+09
-7.12994e+08
9.40226e+09
-3.20446e+09
1.09938e+10
-6.78739e+09
1.21403e+10
-1.18155e+10
1.28403e+10
-1.80867e+10
1.29592e+10
-2.56603e+10
1.22093e+10
-3.44274e+10
9.96825e+09
-4.46802e+10
-5.59206e+10
-1.36337e+08
1.54621e+09
-3.01294e+07
8.69169e+08
7.42322e+07
1.2973e+09
2.54844e+08
1.30552e+09
5.20271e+08
1.42055e+09
9.36554e+08
1.37895e+09
1.55733e+09
1.27022e+09
2.46491e+09
9.53686e+08
3.74295e+09
3.19032e+08
5.31365e+09
-7.28301e+08
6.91896e+09
-2.31798e+09
8.38367e+09
-4.66887e+09
9.68738e+09
-8.09078e+09
1.06761e+10
-1.28039e+10
1.12287e+10
-1.86388e+10
1.11836e+10
-2.56148e+10
1.02926e+10
-3.35358e+10
8.42033e+09
-4.28072e+10
-5.19187e+10
-8.82786e+07
1.47452e+09
1.30047e+07
7.67836e+08
1.26146e+08
1.18415e+09
3.23697e+08
1.10795e+09
6.10926e+08
1.13334e+09
1.05396e+09
9.3589e+08
1.73358e+09
5.90609e+08
2.67817e+09
9.06778e+06
3.78509e+09
-7.87912e+08
4.9475e+09
-1.89078e+09
6.13947e+09
-3.51001e+09
7.35477e+09
-5.88425e+09
8.47768e+09
-9.21375e+09
9.31907e+09
-1.36453e+10
9.73781e+09
-1.90576e+10
9.55262e+09
-2.54297e+10
8.57927e+09
-3.25624e+10
6.70173e+09
-4.09296e+10
-4.9421e+10
-5.37937e+07
1.39054e+09
5.14994e+07
6.62665e+08
1.70401e+08
1.06534e+09
3.71832e+08
9.06761e+08
6.75832e+08
8.29632e+08
1.15534e+09
4.56728e+08
1.84614e+09
-9.98618e+07
2.62607e+09
-7.7055e+08
3.43985e+09
-1.6014e+09
4.3486e+09
-2.79923e+09
5.35719e+09
-4.51831e+09
6.40038e+09
-6.92712e+09
7.35557e+09
-1.01686e+10
8.05349e+09
-1.43429e+10
8.35762e+09
-1.93613e+10
8.06952e+09
-2.51411e+10
7.00869e+09
-3.1501e+10
4.43743e+09
-3.83576e+10
-4.52321e+10
-2.86239e+07
1.30276e+09
8.09334e+07
5.53057e+08
2.04835e+08
9.41451e+08
3.9886e+08
7.1275e+08
7.24668e+08
5.03803e+08
1.21319e+09
-3.18386e+07
1.75558e+09
-6.42323e+08
2.32068e+09
-1.33575e+09
2.98679e+09
-2.2676e+09
3.7644e+09
-3.57694e+09
4.62739e+09
-5.38139e+09
5.50882e+09
-7.80865e+09
6.30721e+09
-1.09671e+10
6.87623e+09
-1.4912e+10
7.08914e+09
-1.95743e+10
6.75974e+09
-2.48118e+10
5.72615e+09
-3.04675e+10
3.50385e+09
-3.61353e+10
-4.13007e+10
-6.91499e+06
1.2093e+09
1.0489e+08
4.41399e+08
2.26726e+08
8.19697e+08
4.11684e+08
5.28077e+08
7.4172e+08
1.74151e+08
1.13838e+09
-4.28203e+08
1.52796e+09
-1.03164e+09
1.99091e+09
-1.79845e+09
2.55481e+09
-2.83122e+09
3.2112e+09
-4.23306e+09
3.93286e+09
-6.10276e+09
4.66329e+09
-8.53876e+09
5.31822e+09
-1.16217e+10
5.77144e+09
-1.53648e+10
5.91176e+09
-1.97142e+10
5.56657e+09
-2.44661e+10
4.62181e+09
-2.95221e+10
2.93495e+09
-3.44477e+10
-3.85142e+10
4.17164e+06
1.13001e+09
1.1125e+08
3.34303e+08
2.30499e+08
7.00504e+08
4.12938e+08
3.45708e+08
7.0097e+08
-1.13827e+08
9.69784e+08
-6.9704e+08
1.28019e+09
-1.34208e+09
1.66269e+09
-2.18098e+09
2.12672e+09
-3.29528e+09
2.66362e+09
-4.76998e+09
3.25059e+09
-6.68976e+09
3.84014e+09
-9.12833e+09
4.36356e+09
-1.21451e+10
4.71501e+09
-1.57163e+10
4.8016e+09
-1.98008e+10
4.45917e+09
-2.41237e+10
3.6352e+09
-2.86981e+10
2.16636e+09
-3.29788e+10
-3.66126e+10
2.37996e+07
1.02907e+09
1.26125e+08
2.32e+08
2.30055e+08
5.96571e+08
3.84416e+08
1.91412e+08
6.00569e+08
-3.29963e+08
8.03421e+08
-8.99913e+08
1.05155e+09
-1.59023e+09
1.36053e+09
-2.48998e+09
1.73472e+09
-3.66949e+09
2.16657e+09
-5.20184e+09
2.63696e+09
-7.16017e+09
3.10703e+09
-9.59841e+09
3.52151e+09
-1.25596e+10
3.79359e+09
-1.59884e+10
3.84631e+09
-1.98535e+10
3.52433e+09
-2.38017e+10
2.79696e+09
-2.79707e+10
1.2445e+09
-3.14264e+10
-3.52504e+10
-2.05271e+07
1.05194e+09
5.37311e+07
1.57758e+08
1.92209e+08
4.58116e+08
3.59005e+08
2.46714e+07
5.19605e+08
-4.9054e+08
6.68758e+08
-1.04905e+09
8.59342e+08
-1.7808e+09
1.10194e+09
-2.73257e+09
1.39646e+09
-3.964e+09
1.73557e+09
-5.54094e+09
2.1027e+09
-7.52728e+09
2.46699e+09
-9.96268e+09
2.78221e+09
-1.28748e+10
2.98407e+09
-1.61902e+10
2.99957e+09
-1.9869e+10
2.72338e+09
-2.35255e+10
2.04727e+09
-2.72946e+10
3.78938e+08
-2.9758e+10
-3.29061e+10
2.58255e+07
1.77737e+08
3.16116e+08
3.37124e+08
3.00356e+08
3.29332e+08
4.06844e+08
5.12815e+08
6.42374e+08
7.90981e+08
9.49496e+08
1.10491e+09
1.23245e+09
1.312e+09
1.29201e+09
1.17564e+09
8.03628e+08
1.98235e+08
3.26664e+08
-8.53515e+07
5.75064e+08
-2.55578e+07
6.42498e+08
1.26914e+08
6.83007e+08
1.32227e+08
7.12363e+08
1.20547e+08
7.29719e+08
1.15469e+08
7.23688e+08
8.67768e+07
7.17681e+08
6.89879e+07
7.19103e+08
5.78245e+07
7.1756e+08
4.65333e+07
7.09339e+08
3.38709e+07
6.92571e+08
1.94578e+07
6.64936e+08
2.56084e+06
6.24946e+08
-1.70259e+07
5.71235e+08
-3.85838e+07
5.02129e+08
-6.29215e+07
4.1542e+08
-8.87836e+07
3.07099e+08
-1.22173e+08
1.71081e+08
-1.51985e+08
-2.21019e+08
-1.82356e+07
-6.77302e+07
-1.38864e+07
-3.08289e+07
4.46407e+07
6.83476e+07
1.01275e+08
7.52849e+07
1.55364e+08
6.65007e+07
2.09216e+08
6.14362e+07
2.46614e+08
4.94231e+07
2.78712e+08
3.67611e+07
3.10371e+08
2.62089e+07
3.39296e+08
1.75143e+07
3.637e+08
9.4961e+06
3.8152e+08
1.56879e+06
3.90004e+08
-5.90582e+06
3.86318e+08
-1.3384e+07
3.69e+08
-2.12726e+07
3.36297e+08
-3.02375e+07
2.8748e+08
-3.99927e+07
2.18023e+08
-5.27447e+07
1.30792e+08
-6.47932e+07
-9.02264e+07
-9.21993e+07
2.42439e+07
-1.3766e+08
1.4436e+07
-9.18267e+07
2.23519e+07
-4.72955e+07
3.04343e+07
-1.15464e+07
3.04283e+07
2.00297e+07
2.93659e+07
4.51735e+07
2.40233e+07
6.50075e+07
1.65601e+07
8.12444e+07
9.82369e+06
9.42291e+07
4.25357e+06
1.04196e+08
-559646
1.10756e+08
-5.18683e+06
1.14148e+08
-9.33734e+06
1.13777e+08
-1.31312e+07
1.09393e+08
-1.69167e+07
1.00299e+08
-2.11971e+07
8.61712e+07
-2.5876e+07
6.56514e+07
-3.22287e+07
3.87985e+07
-3.79451e+07
-5.14272e+07
-5.98708e+06
3.03122e+07
-9.66145e+06
1.81432e+07
1.66257e+06
1.11237e+07
2.02602e+07
1.18224e+07
3.97798e+07
1.09677e+07
5.96077e+07
9.50322e+06
7.63073e+07
7.37353e+06
8.8102e+07
4.73509e+06
9.58654e+07
2.11491e+06
1.00287e+08
-187286
1.0177e+08
-1.98876e+06
1.00167e+08
-3.58881e+06
9.60354e+07
-5.14797e+06
8.97179e+07
-6.80219e+06
8.14871e+07
-8.63032e+06
7.11114e+07
-1.07953e+07
5.85213e+07
-1.32351e+07
4.28916e+07
-1.65469e+07
2.47592e+07
-1.97524e+07
-2.66688e+07
1.04054e+07
1.95996e+07
1.16057e+07
1.65148e+07
1.26791e+07
9.69918e+06
1.77651e+07
6.34272e+06
2.39081e+07
4.60058e+06
2.98273e+07
3.31585e+06
3.48181e+07
2.22262e+06
3.81561e+07
1.18933e+06
3.99786e+07
156689
4.05477e+07
-926462
4.03915e+07
-1.94611e+06
3.95798e+07
-2.91088e+06
3.82061e+07
-3.87552e+06
3.61924e+07
-4.89303e+06
3.34514e+07
-5.98743e+06
2.98153e+07
-7.23846e+06
2.50871e+07
-8.58682e+06
1.885e+07
-1.03837e+07
1.09813e+07
-1.19651e+07
-1.56874e+07
1.13391e+07
8.27511e+06
1.76038e+07
1.02373e+07
1.99422e+07
7.37417e+06
2.1801e+07
4.46341e+06
2.39209e+07
2.50295e+06
2.59673e+07
1.25764e+06
2.77899e+07
427814
2.91583e+07
-181185
2.99769e+07
-632827
3.00852e+07
-1.03012e+06
2.95894e+07
-1.42534e+06
2.85355e+07
-1.84791e+06
2.69949e+07
-2.31319e+06
2.49554e+07
-2.8425e+06
2.24269e+07
-3.44211e+06
1.9355e+07
-4.15655e+06
1.57314e+07
-4.95314e+06
1.13838e+07
-6.0281e+06
6.46241e+06
-7.03637e+06
-9.22552e+06
5.27889e+06
2.9611e+06
1.06813e+07
4.81605e+06
1.36794e+07
4.33476e+06
1.49892e+07
3.12096e+06
1.54535e+07
1.98714e+06
1.55579e+07
1.11476e+06
1.54674e+07
461270
1.53e+07
-49675
1.5069e+07
-456887
1.48061e+07
-796100
1.44317e+07
-1.10103e+06
1.39586e+07
-1.39848e+06
1.33008e+07
-1.70487e+06
1.24729e+07
-2.0367e+06
1.13835e+07
-2.39972e+06
1.00234e+07
-2.82104e+06
8.30747e+06
-3.28001e+06
6.13546e+06
-3.89746e+06
3.49864e+06
-4.44525e+06
-5.72632e+06
3.23345e+06
-51795.9
6.99131e+06
1.23595e+06
9.79529e+06
1.57746e+06
1.16127e+07
1.4111e+06
1.25672e+07
1.07138e+06
1.30476e+07
727861
1.31289e+07
429725
1.29858e+07
182455
1.26222e+07
-38191.4
1.21466e+07
-238949
1.15338e+07
-431571
1.08367e+07
-626704
1.00208e+07
-830614
9.10286e+06
-1.05293e+06
8.06059e+06
-1.29556e+06
6.87086e+06
-1.57637e+06
5.52319e+06
-1.88327e+06
3.96215e+06
-2.29014e+06
2.23735e+06
-2.669e+06
-3.48931e+06
315224
-304113
1.62916e+06
-68603.5
3.04737e+06
168643
4.20286e+06
264631
5.0228e+06
253277
5.57481e+06
185209
5.90831e+06
91499.7
6.11191e+06
-12003.3
6.18588e+06
-122475
6.18493e+06
-229917
6.07528e+06
-336496
5.90079e+06
-445908
5.6109e+06
-561713
5.24819e+06
-688166
4.75618e+06
-826524
4.16189e+06
-986655
3.41127e+06
-1.1607e+06
2.48788e+06
-1.39437e+06
1.39526e+06
-1.60688e+06
-2.0939e+06
274414
-468589
722060
-456339
1.34352e+06
-385348
1.96117e+06
-306263
2.5124e+06
-248233
2.9564e+06
-215402
3.2924e+06
-201176
3.52215e+06
-201354
3.65081e+06
-213645
3.69481e+06
-237426
3.66107e+06
-271246
3.56357e+06
-315278
3.39693e+06
-368626
3.1705e+06
-432960
2.87457e+06
-506990
2.50757e+06
-596313
2.05529e+06
-694831
1.50343e+06
-830153
862286
-952131
-1.23154e+06
52126.8
-441092
110740
-438792
211415
-416576
366907
-392436
539107
-370249
730392
-352407
902981
-336906
1.07206e+06
-326627
1.20771e+06
-321098
1.32812e+06
-321515
1.40597e+06
-327564
1.46135e+06
-339824
1.46631e+06
-357884
1.44121e+06
-382741
1.36172e+06
-413612
1.23772e+06
-453451
1.04672e+06
-498320
787828
-565654
463159
-620690
-768014
82957.6
-380861
151989
-378830
205745
-359995
267292
-344144
321422
-331621
386459
-324040
445713
-315913
508172
-310644
561884
-305966
610114
-304398
645393
-304635
669363
-308606
677311
-315035
666991
-325812
640000
-339604
584685
-358719
500989
-380500
384919
-417031
242446
-443133
-525211
44075.3
-282871
83677.9
-285327
112883
-275358
152536
-266603
178140
-260913
215149
-258166
239584
-255670
273205
-254592
294569
-254115
321594
-254919
335248
-256821
351957
-260284
354034
-265056
353786
-271704
341728
-279996
316712
-290682
271529
-302736
210165
-324562
137038
-336823
-387785
46301.4
-231493
79046.2
-230706
104266
-220276
128139
-211863
146394
-207021
164172
-204240
178947
-202834
191702
-201886
202792
-202388
209818
-203126
215165
-205594
216126
-208489
215732
-213029
208549
-217996
202083
-224788
183887
-232156
158545
-241167
124958
-256496
87852.2
-264042
-299460
42604.9
-148431
68843.5
-153893
92220.8
-147527
111811
-142442
129688
-140094
143506
-138898
158281
-139124
166899
-139300
177941
-140945
180827
-142325
185783
-145418
183140
-148347
183153
-152947
173834
-157279
169284
-163421
151662
-169428
130967
-177030
104681
-188799
77646.3
-194489
-221436
40694.6
-113435
60102.1
-114157
79104.7
-108876
91634.8
-104523
106078
-102195
112734
-100726
124378
-100491
126355
-100284
135424
-101261
133013
-102128
137918
-104303
131653
-106465
133450
-109844
123261
-113175
121479
-117802
107074
-122468
93931
-128316
76498.6
-137332
58798.7
-142035
-162357
30511.6
-71944
44135.1
-74432.4
59074.5
-72288.6
70226.8
-70427.8
82617.3
-69230.3
90439.3
-68471.7
100541
-68430.1
105022
-68446.2
112351
-69190
113179
-69941.9
116284
-71542.3
113662
-73234.4
113251
-75732
106679
-78319.1
103149
-81771.8
91803.6
-85359.5
78709.6
-89787.4
62667.6
-96608.6
46655.1
-100369
-115481
35002.7
-47193
44235.6
-44543.3
52965.4
-44837.6
59562.4
-44620.1
67056.7
-44340
71219.1
-43891.3
77631.4
-44031.1
79467.9
-44085.9
84453.4
-44723.2
83814
-45283.3
86214
-46534.7
83285.3
-47793.2
83541.3
-49716.1
78043.3
-51633.9
76157.3
-54288.7
67613.1
-56930.7
58669.2
-60397
47300.8
-65402.6
35985.7
-68472.7
-79252
45451.4
-43581.4
56997.2
-22534.7
65756.6
-15500.2
68713.5
-16327.5
75943.3
-17215.9
78292.8
-17707.4
84241.6
-18061.8
84828.4
-18446.5
88986.6
-18895.5
87306.8
-19409.5
88578.6
-20175.5
84754.5
-21052.1
83858.2
-22241.1
77626.5
-23526.3
74895.9
-25246.9
65763.1
-27025.8
56427.8
-29509.3
45426.7
-32964.6
35373.6
-35746.9
-43602.8
66285.4
64301.1
64737.4
71840.1
74457.4
79820.8
83630.6
86649.3
90082.9
90294.9
91910.6
89322.5
89164.3
83499.2
81432.2
72319.7
63362.6
52054.7
42627.8
246026
-123357
1.1182e+06
-824706
2.30584e+06
-1.15742e+06
3.13618e+06
-800116
3.58208e+06
-417705
3.86742e+06
-254585
4.1022e+06
-205483
4.4179e+06
-286106
4.31088e+06
139206
4.04104e+06
298690
2.7849e+06
1.29691e+06
1.63576e+06
1.20796e+06
1.10491e+06
629286
873607
333594
762816
242250
645385
227010
531428
234642
401912
268225
332314
242657
335085
-1.0014e+06
958280
-347615
-1.41543e+06
777978
-2.21693e+06
1.52113e+06
-1.46946e+06
1.76505e+06
-566615
1.57586e+06
27403
1.27422e+06
226276
839480
339310
814336
369765
887514
324062
1.14303e+06
1.09857e+06
1.4795e+06
920728
1.59944e+06
567551
1.54967e+06
436004
1.42769e+06
428135
1.24829e+06
459865
1.0412e+06
495687
794818
573355
458651
653829
794875
574921
455303
1.12333e+06
-1.92752e+06
906628
-1.95753e+06
347521
-837134
42913.6
-136088
-81130.6
284247
-202350
495365
-268539
540969
-225695
494541
-311585
529340
165920
708942
485064
671647
515176
626971
415784
619024
318693
634207
205990
669714
84367.9
720337
-50369.6
804930
-133335
828939
662512
1.50662e+06
-988867
543372
-908107
-944519
-405556
-1.9878e+06
267586
-2.55633e+06
479502
-2.71381e+06
484170
-2.69581e+06
519253
-2.63658e+06
521993
-2.61581e+06
517089
-2.56748e+06
520809
-2.33887e+06
523651
-2.15981e+06
533903
-2.02273e+06
534790
-1.88827e+06
525217
-1.72816e+06
521417
-1.55713e+06
538659
-1.37545e+06
572307
-1.11954e+06
583251
-691636
458304
-27006.9
-609806
-295841
-1.84352e+06
377640
-2.68396e+06
477084
-2.77602e+06
399740
-2.66398e+06
409943
-2.54724e+06
411462
-2.39791e+06
420337
-2.25464e+06
427943
-2.10293e+06
422451
-1.94002e+06
410548
-1.77166e+06
414380
-1.62704e+06
442506
-1.49338e+06
461695
-1.34557e+06
431133
-1.12941e+06
375792
-882704
348805
-594415
340416
-231580
311518
170626
258042
146731
-1.02809e+06
823691
-1.20341e+06
624924
-1.26391e+06
612940
-1.31837e+06
524448
-1.31252e+06
489842
-1.29364e+06
472460
-1.22617e+06
452997
-1.136e+06
439386
-1.00681e+06
429215
-885660
427284
-733126
449205
-502060
488730
-209543
517645
27724.8
484986
186308
420253
292580
387535
356427
378071
375760
380486
357616
387695
505511
-181387
1.23359e+06
-298252
990875
-229157
880870
-101790
800678
30112.3
729582
145988
660867
250488
606929
343858
567213
426429
543816
492520
535896
552853
536440
642435
538314
737798
529634
810813
521035
803314
521764
737658
537763
624421
556030
461265
605913
279087
640240
784187
224254
1.02148e+06
283549
963326
380242
797510
551367
677821
678285
611463
805672
582417
849127
567238
900619
561976
875885
567335
873685
580042
810340
594535
778576
607690
682992
610208
621555
612035
508322
618277
430708
633340
305975
646790
182544
697420
78298.2
715064
864520
202922
1.20817e+06
357148
1.17469e+06
456424
1.08341e+06
517562
1.00844e+06
555218
974469
577639
959619
594802
949422
598524
942849
601470
937059
597618
933267
588384
927245
583844
922735
570359
907048
555470
894390
541291
882181
498210
883712
415365
894773
314792
943901
185858
987660
1.04765e+06
-128451
1.1663e+06
-246601
1.12125e+06
-404396
1.10793e+06
-580129
1.07415e+06
-760201
1.0598e+06
-898767
1.04619e+06
-1.05715e+06
1.02938e+06
-1.13891e+06
1.01281e+06
-1.2684e+06
989863
-1.28983e+06
967916
-1.3841e+06
937890
-1.34426e+06
907449
-1.41156e+06
864065
-1.32014e+06
819774
-1.32115e+06
759921
-1.15365e+06
693859
-1.02205e+06
611355
-773724
549719
-513599
542769
531281
-796986
1.91277e+06
-1.43727e+06
1.68205e+06
-1.95015e+06
1.62468e+06
-2.45813e+06
1.5538e+06
-2.88748e+06
1.51292e+06
-3.3098e+06
1.46938e+06
-3.68599e+06
1.42789e+06
-4.03752e+06
1.38096e+06
-4.36247e+06
1.3273e+06
-4.63265e+06
1.26374e+06
-4.88515e+06
1.1845e+06
-5.03378e+06
1.08399e+06
-5.1479e+06
947856
-5.06895e+06
763708
-4.86882e+06
509953
-4.357e+06
176069
-3.57516e+06
-242795
-2.4279e+06
-675888
-1.10899e+06
-929404
-583009
-1.26695e+06
2.4897e+06
-2.49499e+06
2.32866e+06
-3.5942e+06
2.30338e+06
-4.68978e+06
2.25999e+06
-5.70745e+06
2.23095e+06
-6.71532e+06
2.19165e+06
-7.6703e+06
2.14293e+06
-8.58374e+06
2.07525e+06
-9.43797e+06
1.98263e+06
-1.0201e+07
1.85286e+06
-1.08503e+07
1.66927e+06
-1.13207e+07
1.40672e+06
-1.15517e+07
1.03318e+06
-1.14364e+07
515327
-1.08876e+07
-179256
-9.75559e+06
-1.07059e+06
-7.94509e+06
-2.14983e+06
-5.44778e+06
-3.26791e+06
-2.5566e+06
-3.98201e+06
-3.1387e+06
-2.61805e+06
5.31014e+06
-4.85355e+06
4.70978e+06
-7.00062e+06
4.58679e+06
-9.0621e+06
4.43236e+06
-1.10583e+07
4.33079e+06
-1.29911e+07
4.21633e+06
-1.48496e+07
4.08331e+06
-1.66079e+07
3.90647e+06
-1.82309e+07
3.66602e+06
-1.96574e+07
3.33086e+06
-2.08057e+07
2.86191e+06
-2.15743e+07
2.20545e+06
-2.18057e+07
1.30372e+06
-2.1376e+07
98742
-2.00599e+07
-1.4647e+06
-1.7706e+07
-3.42839e+06
-1.40833e+07
-5.73496e+06
-9.32718e+06
-8.00108e+06
-4.03716e+06
-9.24136e+06
-7.18073e+06
-4.44892e+06
9.09116e+06
-8.79023e+06
8.56931e+06
-1.30327e+07
8.41264e+06
-1.7167e+07
8.25107e+06
-2.12522e+07
8.10169e+06
-2.51801e+07
7.90682e+06
-2.90026e+07
7.64112e+06
-3.25628e+07
7.27357e+06
-3.58934e+07
6.7645e+06
-3.87857e+07
6.0576e+06
-4.11939e+07
5.06922e+06
-4.28271e+07
3.6884e+06
-4.34989e+07
1.78837e+06
-4.27699e+07
-768357
-4.02751e+07
-4.12836e+06
-3.54363e+07
-8.3905e+06
-2.79406e+07
-1.33511e+07
-1.80476e+07
-1.80171e+07
-7.47732e+06
-2.00074e+07
-1.46618e+07
-1.07555e+07
1.97412e+07
-1.97124e+07
1.7508e+07
-2.84672e+07
1.70857e+07
-3.67059e+07
1.64919e+07
-4.47854e+07
1.61023e+07
-5.25456e+07
1.56728e+07
-6.01643e+07
1.51795e+07
-6.74092e+07
1.45157e+07
-7.43081e+07
1.3576e+07
-8.04763e+07
1.22078e+07
-8.57067e+07
1.02105e+07
-8.93889e+07
7.33428e+06
-9.10059e+07
3.30992e+06
-8.96709e+07
-2.15673e+06
-8.45592e+07
-9.3379e+06
-7.45379e+07
-1.84825e+07
-5.87294e+07
-2.92364e+07
-3.74538e+07
-3.93824e+07
-1.44883e+07
-4.31262e+07
-2.91574e+07
-1.59083e+07
3.49319e+07
-3.31395e+07
3.43222e+07
-5.05717e+07
3.40488e+07
-6.80933e+07
3.37703e+07
-8.57368e+07
3.33728e+07
-1.02933e+08
3.26991e+07
-1.19668e+08
3.15885e+07
-1.35201e+08
2.9909e+07
-1.49417e+08
2.74922e+07
-1.61481e+08
2.41417e+07
-1.71136e+08
1.95943e+07
-1.77462e+08
1.3525e+07
-1.79954e+08
5.53717e+06
-1.77348e+08
-4.90054e+06
-1.68361e+08
-1.85599e+07
-1.5033e+08
-3.66478e+07
-1.20689e+08
-5.90563e+07
-7.8478e+07
-8.17595e+07
-3.01556e+07
-9.17295e+07
-5.93124e+07
-5.29174e+07
8.84922e+07
-9.42148e+07
7.626e+07
-1.32572e+08
7.27182e+07
-1.66487e+08
6.81575e+07
-1.97535e+08
6.46089e+07
-2.25353e+08
6.09052e+07
-2.50789e+08
5.71509e+07
-2.73641e+08
5.30754e+07
-2.94508e+08
4.84286e+07
-3.12994e+08
4.28626e+07
-3.29188e+08
3.58271e+07
-3.41914e+08
2.64132e+07
-3.49792e+08
1.34343e+07
-3.50066e+08
-4.53858e+06
-3.38714e+08
-2.98953e+07
-3.09797e+08
-6.55588e+07
-2.57064e+08
-1.11747e+08
-1.76078e+08
-1.62731e+08
-7.40355e+07
-1.93754e+08
-1.33354e+08
-3.65862e+07
1.24834e+08
-9.90791e+07
1.38838e+08
-1.65666e+08
1.39029e+08
-2.35689e+08
1.38271e+08
-3.07708e+08
1.36339e+08
-3.79998e+08
1.33268e+08
-4.51741e+08
1.28607e+08
-5.20478e+08
1.21851e+08
-5.85373e+08
1.13034e+08
-6.43686e+08
1.01168e+08
-6.92394e+08
8.42716e+07
-7.26105e+08
6.00649e+07
-7.39169e+08
2.62451e+07
-7.26966e+08
-1.68509e+07
-6.85668e+08
-7.14144e+07
-6.11976e+08
-1.39403e+08
-5.02096e+08
-2.21764e+08
-3.5042e+08
-3.14551e+08
-1.58371e+08
-3.86026e+08
-2.91731e+08
-2.68672e+08
3.93669e+08
-4.96101e+08
3.66673e+08
-7.06904e+08
3.49793e+08
-8.90859e+08
3.22533e+08
-1.04839e+09
2.93748e+08
-1.17605e+09
2.61166e+08
-1.26963e+09
2.22042e+08
-1.33194e+09
1.8432e+08
-1.36747e+09
1.48377e+08
-1.37018e+09
1.03961e+08
-1.33814e+09
5.20326e+07
-1.27262e+09
-5.4702e+06
-1.17678e+09
-6.98022e+07
-1.0535e+09
-1.40241e+08
-9.0788e+08
-2.17258e+08
-7.46317e+08
-3.01145e+08
-5.74063e+08
-3.942e+08
-3.89343e+08
-4.9948e+08
-1.78172e+08
-5.97495e+08
-4.69919e+08
-6.71586e+08
-1.06708e+09
-1.34329e+09
-1.53168e+09
-1.65562e+09
-1.73043e+09
-1.77621e+09
-1.78877e+09
-1.76818e+09
-1.71295e+09
-1.62572e+09
-1.51111e+09
-1.37755e+09
-1.2284e+09
-1.06813e+09
-8.99344e+08
-7.25808e+08
-5.45972e+08
-3.39276e+08
)
;

boundaryField
{
    outletWall
    {
        type            calculated;
        value           nonuniform List<scalar> 
60
(
1.49658e+11
-3.4081e+11
1.26255e+11
7.69822e+10
4.18338e+10
3.28675e+10
2.63966e+10
2.11377e+10
1.66046e+10
1.28983e+10
1.00471e+10
7.87082e+09
6.1888e+09
4.88887e+09
3.83717e+09
3.11173e+09
2.24049e+09
2.65125e+09
8.16051e+08
6.78109e+09
1.41533e+08
-2.33332e+06
7.71205e+07
7.51457e+07
1.00357e+08
1.16426e+08
1.37748e+08
1.59975e+08
1.86006e+08
2.15756e+08
2.48883e+08
2.84485e+08
3.2363e+08
3.60133e+08
3.61308e+08
3.59723e+08
4.17287e+08
8.85255e+07
-1.17787e+09
1.08497e+09
-2.38552e+10
-3.06886e+10
-2.91526e+10
-2.69226e+10
-2.34091e+10
-1.9849e+10
-1.62697e+10
-1.30023e+10
-1.01181e+10
-7.68579e+09
-5.68955e+09
-4.09355e+09
-2.83854e+09
-1.85831e+09
-1.07803e+09
-4.53769e+08
3.67005e+06
3.19742e+08
5.85087e+06
8.84581e+08
)
;
    }
    fineWalls
    {
        type            calculated;
        value           uniform 0;
    }
    fineFrontAndBack
    {
        type            calculated;
        value           nonuniform List<scalar> 
960
(
-7.86588e-09
4.20732e-07
-2.22191e-07
-2.90852e-07
-1.22917e-06
-3.35971e-07
3.64427e-07
-2.18245e-06
2.38141e-05
5.32124e-06
6.71999e-06
-5.13452e-05
-1.68406e-05
-1.14981e-05
-0.00015547
-3.2204e-05
-2.32353e-05
-9.80757e-05
-1.11334e-05
-1.14533e-05
1.68927e-07
8.7252e-07
-3.94154e-09
-7.00663e-07
-9.72457e-07
-9.19578e-07
-1.59575e-05
-6.00027e-07
-4.67155e-07
-3.4002e-07
-2.31955e-07
-1.50262e-07
-8.87452e-08
1.77323e-08
1.73392e-07
3.55806e-07
5.13857e-07
7.73471e-07
9.16328e-07
3.56475e-06
8.51966e-07
-5.29752e-06
-3.30397e-06
-5.07716e-06
-0.000120076
-2.32534e-05
-1.77333e-05
-9.2023e-06
-0.000152526
-6.22427e-06
3.43818e-05
0.000218299
2.42227e-05
1.75578e-05
1.20191e-05
6.00184e-05
8.71804e-07
-1.77031e-06
1.61696e-06
-9.84785e-05
-4.73913e-06
-3.50051e-06
-2.54792e-06
-1.87845e-06
-1.39195e-06
-1.05515e-06
-8.20756e-07
-6.53875e-07
-5.12513e-07
-4.64033e-07
-4.93773e-07
-5.4218e-07
-5.79934e-07
6.39881e-06
-8.23378e-07
-6.52783e-07
-8.98404e-07
-8.55982e-07
-3.5829e-06
-4.72592e-06
7.67941e-06
1.14286e-05
4.28517e-05
4.16661e-06
6.43216e-06
-0.000102122
-3.0977e-05
-2.66268e-05
-0.000323872
-5.2532e-05
-2.25587e-05
-0.000349339
-8.5042e-05
-6.71091e-05
-3.49095e-05
-0.000710825
-0.000287781
-0.000346554
0.00113649
0.00233739
-8.87144e-06
-4.89527e-06
-8.64337e-06
-1.07423e-05
-1.4495e-05
-1.92607e-05
-2.57924e-05
-3.46089e-05
-4.65833e-05
-6.28363e-05
-8.49222e-05
-0.000115111
-0.000157119
-0.000217265
-0.000303943
-0.00042135
-0.000555845
-0.000642459
-0.000440969
-1.58819e-06
-1.92306e-06
-4.6945e-06
-5.79199e-06
-8.08317e-06
-1.10593e-05
-1.52632e-05
-2.10466e-05
-2.89846e-05
-3.98192e-05
-5.45514e-05
-7.41961e-05
-9.85268e-05
-0.000123062
-0.00013623
-0.000126741
-0.000124118
-0.000262631
-0.000633492
-4.6736e-08
-1.0116e-06
-2.49915e-06
-3.22047e-06
-4.5721e-06
-6.34317e-06
-8.86918e-06
-1.23766e-05
-1.72595e-05
-2.4001e-05
-3.30648e-05
-4.43716e-05
-5.61507e-05
-6.34648e-05
-5.80516e-05
-3.20494e-05
-9.56489e-06
-1.00132e-05
0.00012248
2.47542e-07
-4.83782e-07
-1.42439e-06
-1.89439e-06
-2.70524e-06
-3.78807e-06
-5.33181e-06
-7.49445e-06
-1.05368e-05
-1.47617e-05
-2.04042e-05
-2.72747e-05
-3.38714e-05
-3.53245e-05
-2.61155e-05
-1.41369e-05
-6.79081e-06
-3.46933e-07
4.40367e-06
2.56715e-07
-3.50591e-07
-8.57964e-07
-1.16096e-06
-1.66188e-06
-2.34203e-06
-3.31063e-06
-4.67603e-06
-6.61552e-06
-9.3505e-06
-1.30208e-05
-1.70015e-05
-1.98523e-05
-1.86141e-05