/*--------------------------------*- C++ -*----------------------------------*\
| =========                 |                                                 |
| \\      /  F ield         | OpenFOAM: The Open Source CFD Toolbox           |
|  \\    /   O peration     | Version:  4.1                                   |
|   \\  /    A nd           | Web:      www.OpenFOAM.org                      |
|    \\/     M anipulation  |                                                 |
\*---------------------------------------------------------------------------*/
FoamFile
{
    version     2.0;
    format      ascii;
    class       volVectorField;
    location    "28";
    object      U;
}
// * * * * * * * * * * * * * * * * * * * * * * * * * * * * * * * * * * * * * //

dimensions      [0 1 -1 0 0 0 0];

internalField   nonuniform List<vector> 
1280
(
(-5.68446e-12 1.18463e+07 -185476)
(7.15074e-11 1.0111e+07 1.22856e+06)
(-1.60571e-10 6.80975e+06 805070)
(-2.10191e-10 7.09176e+06 459344)
(-2.0891e-10 9.39839e+06 1.37262e+06)
(-2.42797e-10 6.27754e+06 683756)
(2.63362e-10 6.99761e+06 462416)
(-2.38811e-09 6.26917e+06 466021)
(6.93073e-09 8.38278e+06 68549.7)
(3.84552e-09 6.41261e+06 -42387.4)
(5.76273e-09 6.33156e+06 67168.7)
(-1.44506e-08 8.63574e+06 30253.8)
(-1.30647e-08 6.49167e+06 -10009.7)
(-9.02488e-09 6.41271e+06 990.356)
(-3.56563e-08 8.77264e+06 378081)
(-2.3273e-08 6.56878e+06 220396)
(-1.67916e-08 6.41418e+06 55927)
(-1.66689e-08 9.24165e+06 934964)
(-8.04582e-09 6.08774e+06 452331)
(-8.27702e-09 7.36317e+06 631465)
(6.93035e-10 6.66367e+06 -261857)
(3.57957e-09 6.48693e+06 -378635)
(-1.61704e-11 6.5944e+06 -289886)
(-2.87452e-09 6.41176e+06 -158892)
(-3.98957e-09 6.51723e+06 53181)
(-3.77263e-09 5.91091e+06 171177)
(-3.3639e-09 1.14131e+07 1.20721e+06)
(-2.46165e-09 6.45908e+06 628754)
(-1.91653e-09 6.24216e+06 263899)
(-1.39496e-09 6.34929e+06 -12765.1)
(-9.51608e-10 6.31617e+06 -131594)
(-6.16459e-10 6.29506e+06 -146166)
(-3.64083e-10 6.31446e+06 -83043.3)
(7.27478e-11 6.33358e+06 39744.3)
(7.11353e-10 6.37253e+06 202812)
(1.45972e-09 6.38473e+06 402258)
(2.10813e-09 6.47681e+06 617853)
(3.17321e-09 6.40903e+06 889391)
(3.75929e-09 6.70106e+06 1.10371e+06)
(1.46246e-08 6.27529e+06 1.63446e+06)
(1.48297e-10 1.46427e+07 -1.00329e+06)
(-4.25504e-09 7.86714e+06 -792766)
(-2.65379e-09 8.13303e+06 -666773)
(-5.26156e-09 7.62379e+06 -247563)
(-1.99001e-08 1.21265e+07 -2.07563e+06)
(-1.86775e-08 8.84909e+06 -1.42283e+06)
(-1.42436e-08 1.0151e+07 -1.08462e+06)
(-7.39141e-09 9.1261e+06 -475410)
(-3.51876e-08 1.34829e+07 -1.78063e+06)
(3.85454e-09 1.07943e+07 -1.04242e+06)
(3.84135e-08 1.0569e+07 -604378)
(3.7998e-08 1.62784e+07 -1.5318e+06)
(1.9456e-08 1.16576e+07 -1.04497e+06)
(1.41026e-08 1.33066e+07 -890629)
(9.65388e-09 1.18644e+07 -421742)
(1.04471e-08 1.81945e+07 -1.05157e+06)
(-6.63783e-10 1.30782e+07 -626323)
(-1.42194e-09 1.5034e+07 -333910)
(1.29876e-09 1.29104e+07 -6240.18)
(-2.85322e-08 2.28134e+07 413588)
(-1.94426e-08 1.51729e+07 -2.41761e+06)
(-1.43611e-08 1.44699e+07 -2.66189e+06)
(-1.0453e-08 1.4602e+07 -2.31402e+06)
(-7.70647e-09 1.44854e+07 -1.88426e+06)
(-5.71055e-09 1.43102e+07 -1.46679e+06)
(-4.32881e-09 1.41943e+07 -1.04745e+06)
(-3.3672e-09 1.40836e+07 -616920)
(-2.68256e-09 1.39935e+07 -171089)
(-2.10262e-09 1.38764e+07 282734)
(-1.90372e-09 1.38571e+07 764357)
(-2.02573e-09 1.36228e+07 1.24266e+06)
(-2.22433e-09 1.3926e+07 1.74666e+06)
(-2.37922e-09 1.28963e+07 2.30318e+06)
(1.34889e-09 2.83054e+07 -2.37264e+06)
(-3.37796e-09 1.75125e+07 264906)
(-2.67808e-09 1.75662e+07 57827.6)
(-3.68576e-09 1.81954e+07 -19836)
(-3.51172e-09 1.82146e+07 276380)
(-1.46991e-08 1.88489e+07 505477)
(-1.93884e-08 1.80793e+07 1.86805e+06)
(5.54971e-09 2.41065e+07 -1.17068e+06)
(8.25916e-09 1.69225e+07 -438009)
(7.28306e-09 2.73664e+07 -1.0837e+07)
(3.0111e-09 2.43193e+07 -7.2152e+06)
(4.64836e-09 2.46416e+07 -4.04025e+06)
(-2.67655e-08 3.61406e+07 -1.14612e+07)
(-2.53266e-08 3.16565e+07 -7.11886e+06)
(-2.15947e-08 3.1161e+07 -3.83333e+06)
(-6.98671e-08 4.76871e+07 -1.56883e+07)
(-3.84267e-08 3.93659e+07 -1.0836e+07)
(-1.63026e-08 4.00977e+07 -5.81286e+06)
(-7.88539e-08 6.43483e+07 -2.85028e+07)
(-6.38926e-08 5.59187e+07 -2.17416e+07)
(-4.8498e-08 7.14456e+07 -5.10744e+06)
(-2.52282e-08 5.16466e+07 -5.83561e+07)
(-1.20812e-07 1.02732e+08 5.92243e+08)
(-2.07972e-07 -1.17079e+08 1.15966e+09)
(-2.49256e-07 -2.00721e+08 1.39375e+09)
(1.95085e-07 -3.8729e+08 -1.0496e+09)
(1.68917e-06 -1.02093e+09 -9.53375e+09)
(-9.85716e-10 8.5933e+06 9.8604e+06)
(-5.43919e-10 2.65359e+06 3.56384e+06)
(-9.60375e-10 5.68276e+06 7.66671e+06)
(-1.19358e-09 5.94157e+06 8.85446e+06)
(-1.61055e-09 7.40083e+06 1.15201e+07)
(-2.14007e-09 8.90005e+06 1.45367e+07)
(-2.86582e-09 1.08212e+07 1.85329e+07)
(-3.84543e-09 1.31589e+07 2.36417e+07)
(-5.17593e-09 1.60597e+07 3.02592e+07)
(-6.98181e-09 1.97063e+07 3.88252e+07)
(-9.4358e-09 2.44415e+07 4.99336e+07)
(-1.27901e-08 3.08992e+07 6.44213e+07)
(-1.74577e-08 4.02891e+07 8.37041e+07)
(-2.41406e-08 5.48011e+07 1.10262e+08)
(-3.37714e-08 7.65857e+07 1.47176e+08)
(-4.68167e-08 1.0328e+08 1.94718e+08)
(-6.17605e-08 1.26112e+08 2.41581e+08)
(-7.13844e-08 1.19819e+08 2.63938e+08)
(-4.89966e-08 5.26499e+06 2.37511e+08)
(-1.76465e-10 -3.71074e+06 866600)
(-2.13673e-10 -1.06607e+06 1.46664e+06)
(-5.21611e-10 -3.48276e+06 1.88563e+06)
(-6.43555e-10 -3.76151e+06 2.10814e+06)
(-8.9813e-10 -4.5906e+06 3.09935e+06)
(-1.22881e-09 -5.59252e+06 4.17242e+06)
(-1.69591e-09 -6.81418e+06 5.6325e+06)
(-2.33851e-09 -8.31376e+06 7.49363e+06)
(-3.22052e-09 -1.01452e+07 9.90716e+06)
(-4.42435e-09 -1.24212e+07 1.31905e+07)
(-6.06126e-09 -1.54218e+07 1.80246e+07)
(-8.24401e-09 -1.98172e+07 2.55343e+07)
(-1.09474e-08 -2.70238e+07 3.69521e+07)
(-1.36736e-08 -3.93637e+07 5.15458e+07)
(-1.51367e-08 -5.85051e+07 6.28206e+07)
(-1.40823e-08 -7.69591e+07 6.43102e+07)
(-1.37909e-08 -6.22149e+07 7.24199e+07)
(-2.91813e-08 4.15747e+07 1.35776e+08)
(-7.0388e-08 1.82705e+08 3.34423e+08)
(-5.19289e-12 -1.32647e+06 -537763)
(-1.124e-10 1.23455e+06 902094)
(-2.77684e-10 499251 1.11614e+06)
(-3.5783e-10 666247 1.34996e+06)
(-5.08011e-10 412816 1.75962e+06)
(-7.04797e-10 574781 2.29586e+06)
(-9.85465e-10 552664 2.97107e+06)
(-1.37517e-09 521919 3.84202e+06)
(-1.91773e-09 317015 4.99568e+06)
(-2.66677e-09 -209414 6.60683e+06)
(-3.67387e-09 -1.22065e+06 8.92932e+06)
(-4.93018e-09 -2.59737e+06 1.21169e+07)
(-6.23896e-09 -3.4833e+06 1.57529e+07)
(-7.05164e-09 -1.595e+06 1.74373e+07)
(-6.45017e-09 6.45504e+06 1.16501e+07)
(-3.56104e-09 1.83872e+07 -7.18497e+06)
(-1.06277e-09 6.9835e+06 -2.50841e+07)
(-1.11257e-09 -1.44029e+07 -5.94962e+07)
(1.36089e-08 -1.26522e+07 -9.00005e+07)
(2.75047e-11 -355618 -310850)
(-5.37536e-11 -391022 82153.2)
(-1.58265e-10 -310657 889342)
(-2.10487e-10 -451248 968676)
(-3.00582e-10 -618849 1.21072e+06)
(-4.20897e-10 -816237 1.46403e+06)
(-5.92423e-10 -1.07605e+06 1.81156e+06)
(-8.32717e-10 -1.42487e+06 2.2416e+06)
(-1.17075e-09 -1.93199e+06 2.80236e+06)
(-1.64019e-09 -2.71503e+06 3.49163e+06)
(-2.26713e-09 -3.91788e+06 4.22762e+06)
(-3.03052e-09 -5.4877e+06 4.58646e+06)
(-3.76349e-09 -6.58877e+06 3.66924e+06)
(-3.92495e-09 -4.68144e+06 -295435)
(-2.90172e-09 1.89417e+06 -1.27683e+07)
(-1.57076e-09 4.11476e+06 -2.1428e+07)
(-7.54535e-10 4.42408e+06 -3.29082e+07)
(-3.85482e-11 3.2287e+07 -3.75699e+07)
(4.89297e-10 7.14856e+07 -2.66361e+07)
(2.85239e-11 -631696 169614)
(-3.89545e-11 -374715 64068.7)
(-9.53293e-11 -560002 618066)
(-1.28995e-10 -672734 632879)
(-1.84653e-10 -949136 782838)
(-2.60226e-10 -1.21661e+06 865805)
(-3.67847e-10 -1.58339e+06 992271)
(-5.19559e-10 -2.0653e+06 1.10736e+06)
(-7.35058e-10 -2.74336e+06 1.21559e+06)
(-1.03894e-09 -3.72696e+06 1.20122e+06)
(-1.44675e-09 -5.09813e+06 802567)
(-1.88906e-09 -6.59577e+06 -641069)
(-2.20581e-09 -7.31929e+06 -3.5911e+06)
(-2.06824e-09 -5.11037e+06 -9.38534e+06)
(-1.27269e-09 -254898 -1.75576e+07)
(-5.3631e-10 4.58973e+06 -2.07793e+07)
(-4.19711e-11 8.05704e+06 -2.85862e+07)
(1.65107e-10 1.62078e+07 -3.48925e+07)
(6.25267e-10 2.88264e+07 -2.75156e+07)
(1.95219e-11 -561828 585580)
(-2.98455e-11 -444975 94200)
(-5.92515e-11 -506725 470840)
(-8.10149e-11 -574256 433460)
(-1.16207e-10 -805659 521671)
(-1.64542e-10 -1.02896e+06 500978)
(-2.33356e-10 -1.34242e+06 483611)
(-3.3191e-10 -1.75801e+06 384783)
(-4.71866e-10 -2.33917e+06 167187)
(-6.55366e-10 -3.11009e+06 -340765)
(-8.77697e-10 -4.02014e+06 -1.3919e+06)
(-1.08499e-09 -4.76493e+06 -3.63091e+06)
(-1.17148e-09 -4.36179e+06 -7.01551e+06)
(-9.55761e-10 -687325 -1.32922e+07)
(-5.77427e-10 4.12544e+06 -1.74195e+07)
(-4.21697e-11 7.26894e+06 -1.94091e+07)
(4.50846e-10 1.01536e+07 -2.31712e+07)
(3.71108e-10 2.17008e+07 -2.5669e+07)
(-2.1002e-10 3.94776e+07 -2.07805e+07)
(1.02335e-11 -494582 819252)
(-2.203e-11 -498083 53067.1)
(-3.7449e-11 -526685 382450)
(-5.16055e-11 -602062 286224)
(-7.41774e-11 -795448 330519)
(-1.05684e-10 -1.00308e+06 236704)
(-1.52149e-10 -1.28658e+06 117064)
(-2.12187e-10 -1.63954e+06 -142084)
(-2.90738e-10 -2.08415e+06 -586093)
(-3.86256e-10 -2.63457e+06 -1.39557e+06)
(-4.8602e-10 -3.17036e+06 -2.78631e+06)
(-5.62471e-10 -3.45092e+06 -5.22352e+06)
(-5.48715e-10 -2.36678e+06 -8.71341e+06)
(-4.04337e-10 855023 -1.40245e+07)
(-1.5786e-10 4.05661e+06 -1.63611e+07)
(9.16447e-10 7.33109e+06 -1.75474e+07)
(1.11571e-09 1.11543e+07 -1.96451e+07)
(3.65421e-10 1.901e+07 -2.14221e+07)
(7.3244e-11 3.04752e+07 -1.45014e+07)
(3.86628e-12 -513659 884122)
(-1.55199e-11 -472541 -13032.6)
(-2.39105e-11 -538522 310756)
(-3.31774e-11 -616663 159495)
(-4.79399e-11 -788636 170163)
(-6.87063e-11 -978299 13491.2)
(-8.64564e-11 -1.21686e+06 -194056)
(-1.24158e-10 -1.50174e+06 -575556)
(-1.66259e-10 -1.845e+06 -1.17857e+06)
(-2.05954e-10 -2.22227e+06 -2.15588e+06)
(-2.52845e-10 -2.48063e+06 -3.72568e+06)
(-2.50282e-10 -2.36956e+06 -6.02022e+06)
(-1.73759e-10 -928317 -9.86137e+06)
(-3.66621e-10 2.03249e+06 -1.31236e+07)
(1.36416e-09 4.95809e+06 -1.47312e+07)
(2.83539e-09 8.09864e+06 -1.57093e+07)
(1.54069e-09 1.17607e+07 -1.65921e+07)
(1.7771e-10 1.84569e+07 -1.69917e+07)
(1.63539e-11 2.84979e+07 -8.16185e+06)
(2.93907e-13 -532402 855268)
(-1.04651e-11 -426276 -75506.9)
(-1.53769e-11 -526598 251003)
(-2.15196e-11 -596722 51997.6)
(-3.09535e-11 -740538 34194)
(-3.91349e-11 -891169 -178035)
(-1.22621e-10 -1.07413e+06 -457215)
(-9.62026e-11 -1.28135e+06 -924929)
(-8.98045e-11 -1.50532e+06 -1.63197e+06)
(-1.19212e-10 -1.69342e+06 -2.70398e+06)
(-1.62355e-11 -1.69951e+06 -4.32902e+06)
(-3.49665e-10 -1.15803e+06 -6.62416e+06)
(6.3285e-10 500164 -1.00866e+07)
(-1.55986e-10 2.82224e+06 -1.21278e+07)
(6.73672e-09 5.27955e+06 -1.32629e+07)
(4.76063e-09 8.23078e+06 -1.39662e+07)
(1.13083e-09 1.18276e+07 -1.42917e+07)
(-6.89862e-11 1.68669e+07 -1.40352e+07)
(-1.45006e-10 2.37802e+07 -7.93683e+06)
(-1.47079e-12 -538188 788503)
(-6.73092e-12 -382738 -128379)
(-9.91696e-12 -507168 200731)
(-1.39327e-11 -564713 -39458.4)
(-1.91863e-11 -675462 -85608.8)
(-4.31915e-11 -782089 -339230)
(4.89903e-10 -908061 -674718)
(8.55777e-11 -1.03024e+06 -1.20202e+06)
(-4.28633e-11 -1.13089e+06 -1.97807e+06)
(6.12113e-11 -1.13919e+06 -3.11838e+06)
(-1.04049e-09 -902409 -4.75191e+06)
(7.85001e-09 -50025.2 -7.16868e+06)
(4.59182e-09 1.41328e+06 -9.43072e+06)
(3.56841e-10 3.31878e+06 -1.08725e+07)
(1.54305e-08 5.62821e+06 -1.17839e+07)
(4.04009e-09 8.4339e+06 -1.23249e+07)
(1.02302e-10 1.1766e+07 -1.22945e+07)
(-1.33101e-10 1.60156e+07 -1.15256e+07)
(1.44549e-10 2.15167e+07 -6.99824e+06)
(-2.16206e-12 -535087 710574)
(-4.05989e-12 -342411 -170000)
(-6.33385e-12 -482003 156736)
(-8.87021e-12 -521172 -116621)
(-1.15088e-11 -600860 -192255)
(-1.35892e-11 -662174 -472143)
(-3.09439e-10 -726973 -851112)
(-3.78868e-11 -763182 -1.42472e+06)
(-9.44473e-12 -739857 -2.25573e+06)
(5.12002e-11 -582236 -3.45394e+06)
(-1.0559e-10 -103980 -5.14715e+06)
(-1.68938e-10 781147 -7.02072e+06)
(-3.7081e-10 2.01445e+06 -8.51625e+06)
(-7.71254e-11 3.73387e+06 -9.64834e+06)
(-1.4146e-09 5.88076e+06 -1.04195e+07)
(-8.40458e-10 8.48476e+06 -1.08146e+07)
(-1.53368e-10 1.15359e+07 -1.05823e+07)
(-2.18644e-12 1.51244e+07 -9.58516e+06)
(7.26461e-10 1.92565e+07 -6.50064e+06)
(-2.18967e-12 -523462 633381)
(-2.20686e-12 -305600 -202670)
(-3.87675e-12 -448829 112209)
(-5.40048e-12 -465162 -175743)
(-7.3453e-12 -517470 -282492)
(9.70433e-12 -529491 -578235)
(-2.26066e-10 -529289 -993871)
(-1.30623e-10 -473983 -1.60687e+06)
(-6.08992e-11 -327643 -2.50924e+06)
(-2.55149e-11 -1247.47 -3.71647e+06)
(-1.05185e-11 550412 -5.09467e+06)
(1.11391e-12 1.33188e+06 -6.35262e+06)
(2.94498e-11 2.47526e+06 -7.51613e+06)
(8.13411e-12 4.08495e+06 -8.49661e+06)
(1.41248e-10 6.09169e+06 -9.14456e+06)
(1.40156e-10 8.50515e+06 -9.42188e+06)
(4.38206e-11 1.12668e+07 -9.03026e+06)
(-1.71567e-12 1.4498e+07 -7.96356e+06)
(2.3591e-10 1.78015e+07 -5.7265e+06)
(-1.82076e-12 -502411 561564)
(-9.80749e-13 -271446 -226368)
(-2.16234e-12 -412592 66740.2)
(-2.99554e-12 -401549 -218562)
(-5.0383e-12 -425414 -352943)
(1.27585e-11 -387184 -661670)
(-6.05831e-11 -315806 -1.1072e+06)
(-7.38341e-11 -167411 -1.79197e+06)
(-4.91856e-11 97209.8 -2.66097e+06)
(-2.33098e-11 468182 -3.61421e+06)
(-7.76586e-12 984196 -4.5797e+06)
(-1.56474e-12 1.75895e+06 -5.58761e+06)
(-2.61749e-12 2.87854e+06 -6.58116e+06)
(-6.87359e-13 4.39278e+06 -7.43414e+06)
(-1.56092e-11 6.25405e+06 -7.95829e+06)
(-2.09982e-11 8.46455e+06 -8.14205e+06)
(-9.21395e-12 1.0956e+07 -7.60295e+06)
(2.06057e-12 1.39007e+07 -6.59063e+06)
(-7.78696e-11 1.68045e+07 -4.65548e+06)
(-1.2723e-12 -477919 496051)
(-2.4793e-13 -238238 -234607)
(-9.83261e-13 -373698 18082.7)
(-1.3704e-12 -334942 -247246)
(-3.00096e-12 -327995 -403311)
(4.59782e-12 -235854 -723725)
(4.6349e-13 -83233.4 -1.21712e+06)
(-4.19777e-13 147475 -1.85417e+06)
(1.21905e-12 417362 -2.49682e+06)
(1.83761e-12 786453 -3.2046e+06)
(1.26839e-12 1.33758e+06 -4.00253e+06)
(4.95499e-13 2.13225e+06 -4.87034e+06)
(3.51079e-13 3.21936e+06 -5.71809e+06)
(7.01275e-14 4.6412e+06 -6.4431e+06)
(1.74484e-12 6.36521e+06 -6.85279e+06)
(2.97794e-12 8.37427e+06 -6.96505e+06)
(1.66244e-12 1.06052e+07 -6.30421e+06)
(1.03411e-12 1.31318e+07 -5.31934e+06)
(-5.59845e-11 1.57488e+07 -1.77067e+06)
(-7.21356e-13 -443324 433489)
(1.07972e-13 -201355 -230350)
(-2.63833e-13 -332501 -26842)
(-3.94205e-13 -267862 -264392)
(-1.16948e-12 -222719 -430265)
(-9.23281e-14 -75112.5 -787563)
(1.43842e-13 136685 -1.23397e+06)
(1.42667e-13 358620 -1.67278e+06)
(-2.01982e-15 643226 -2.17699e+06)
(-1.37855e-13 1.05986e+06 -2.77654e+06)
(-1.58949e-13 1.64557e+06 -3.4622e+06)
(-9.27167e-14 2.44639e+06 -4.20133e+06)
(-5.72289e-14 3.50559e+06 -4.91079e+06)
(-1.03408e-14 4.84884e+06 -5.5172e+06)
(-1.98163e-13 6.45035e+06 -5.82927e+06)
(-4.17839e-13 8.2728e+06 -5.89085e+06)
(-2.764e-13 1.02592e+07 -5.20437e+06)
(1.87793e-13 1.22976e+07 -4.30399e+06)
(-7.1876e-11 1.4232e+07 -1.06049e+06)
(-2.76665e-13 -428779 381431)
(2.16741e-13 -168464 -225817)
(7.76757e-14 -293618 -64412.7)
(5.82954e-14 -208384 -268104)
(-1.2145e-13 -117360 -452302)
(-9.74909e-15 88575.7 -789398)
(1.84605e-14 289595 -1.0938e+06)
(-1.23791e-15 531516 -1.43999e+06)
(-4.72984e-15 863925 -1.86412e+06)
(8.91375e-15 1.32039e+06 -2.37279e+06)
(1.84731e-14 1.93683e+06 -2.94823e+06)
(1.47711e-14 2.7517e+06 -3.56417e+06)
(9.58015e-15 3.79537e+06 -4.14708e+06)
(1.93084e-15 5.07854e+06 -4.64434e+06)
(2.3426e-14 6.58096e+06 -4.87256e+06)
(5.83633e-14 8.24471e+06 -4.8999e+06)
(6.26504e-14 1.00231e+07 -4.22058e+06)
(-7.43136e-13 1.1772e+07 -3.46209e+06)
(5.04793e-11 1.32606e+07 -1.10794e+06)
(8.01956e-15 -356115 317167)
(1.93148e-13 -119518 -201915)
(1.59922e-13 -246479 -87169.4)
(1.66354e-13 -139485 -257164)
(1.49135e-13 -2121.16 -470612)
(7.74898e-14 196117 -686494)
(2.28756e-14 400970 -920085)
(3.09424e-15 667001 -1.20432e+06)
(-1.71565e-16 1.02184e+06 -1.55461e+06)
(-1.04679e-15 1.49642e+06 -1.97195e+06)
(-2.23041e-15 2.12066e+06 -2.44092e+06)
(-2.19619e-15 2.92174e+06 -2.94073e+06)
(-1.56511e-15 3.92187e+06 -3.40747e+06)
(-3.77088e-16 5.11852e+06 -3.80475e+06)
(-2.90103e-15 6.49524e+06 -3.96524e+06)
(-8.2439e-15 7.97403e+06 -3.97271e+06)
(-9.90546e-15 9.53688e+06 -3.31902e+06)
(-4.21852e-15 1.10463e+07 -2.74872e+06)
(1.36521e-11 1.22616e+07 -653544)
(2.47687e-13 -449154 296139)
(1.85917e-13 -117243 -207037)
(1.37787e-13 -229543 -105418)
(1.2502e-13 -108539 -247873)
(6.39577e-14 62239.8 -419193)
(2.01412e-14 239737 -573520)
(2.14704e-15 439531 -758238)
(-1.17257e-15 701391 -987573)
(-4.98319e-16 1.04929e+06 -1.27041e+06)
(5.54008e-17 1.50722e+06 -1.60681e+06)
(2.92845e-16 2.09973e+06 -1.98337e+06)
(3.25035e-16 2.8473e+06 -2.38357e+06)
(2.50222e-16 3.76695e+06 -2.75398e+06)
(7.06126e-17 4.84715e+06 -3.06875e+06)
(3.72375e-16 6.07965e+06 -3.18295e+06)
(1.18418e-15 7.36725e+06 -3.18004e+06)
(1.41828e-15 8.74428e+06 -2.57101e+06)
(-5.04431e-15 1.00105e+07 -2.14004e+06)
(6.21076e-12 1.12603e+07 197482)
(-2.54757e-14 -77333.3 119407)
(4.88195e-14 -6704.21 -61320.5)
(3.84774e-14 -126356 -71470.6)
(2.78424e-14 19809.6 -234145)
(3.9132e-14 169105 -378899)
(1.30966e-14 369710 -484358)
(6.41225e-16 646051 -623203)
(-4.36457e-16 1.00758e+06 -802325)
(-5.29564e-17 1.47647e+06 -1.02461e+06)
(-1.01082e-18 2.07967e+06 -1.2886e+06)
(-3.46263e-17 2.84388e+06 -1.58259e+06)
(-4.69623e-17 3.78698e+06 -1.89271e+06)
(-3.93677e-17 4.92295e+06 -2.17584e+06)
(-1.25654e-17 6.22658e+06 -2.41155e+06)
(-4.89322e-17 7.68626e+06 -2.48488e+06)
(-1.72644e-16 9.15532e+06 -2.46131e+06)
(-1.83909e-16 1.06943e+07 -1.93042e+06)
(-3.05152e-16 1.18036e+07 -1.5406e+06)
(-3.20235e-12 1.30806e+07 1.32897e+06)
(1.6948e-12 -963227 574155)
(7.18129e-13 -152679 -317626)
(3.1341e-13 -282245 -197655)
(1.94975e-13 -115828 -321592)
(4.95918e-14 211613 -250123)
(9.07491e-16 510748 -245088)
(-1.21973e-15 854122 -297401)
(-9.74454e-17 1.28842e+06 -374507)
(1.93877e-17 1.84551e+06 -471540)
(3.83476e-18 2.5531e+06 -586230)
(4.25752e-18 3.43578e+06 -712370)
(5.9582e-18 4.50705e+06 -842790)
(5.24342e-18 5.7715e+06 -958120)
(1.72828e-18 7.19391e+06 -1.04834e+06)
(6.02072e-18 8.7413e+06 -1.06562e+06)
(2.2161e-17 1.02569e+07 -1.03426e+06)
(6.00225e-17 1.17392e+07 -786477)
(-6.41936e-15 1.2598e+07 -614036)
(5.96062e-12 1.36151e+07 939993)
(3.68652e-08 90318 -2.54632e+06)
(5.16203e-08 -699227 -3.07883e+06)
(3.00841e-08 -489492 -3.01667e+06)
(1.41458e-08 -200883 -2.78357e+06)
(4.63726e-09 2398.25 -2.48826e+06)
(-1.76629e-10 203348 -2.32364e+06)
(-2.47424e-09 509010 -1.50351e+06)
(-3.46004e-09 741094 -1.25791e+06)
(-3.78566e-09 844660 -1.05289e+06)
(-3.72982e-09 972766 -784393)
(-3.36737e-09 1.13515e+06 -476121)
(-2.87249e-09 1.30462e+06 -116261)
(-1.86271e-09 1.50039e+06 315343)
(1.10428e-09 1.7048e+06 811564)
(6.07915e-09 1.91935e+06 1.35534e+06)
(1.30603e-08 2.1149e+06 1.9664e+06)
(2.12638e-08 2.36967e+06 2.61498e+06)
(3.19274e-08 2.47651e+06 3.44766e+06)
(5.05397e-08 3.10235e+06 4.20929e+06)
(1.182e-07 2.22725e+06 5.89214e+06)
(2.63857e-07 646713 2.76008e+06)
(8.06695e-07 893861 1.41811e+06)
(1.82459e-07 -844317 -1.57603e+06)
(8.40867e-08 -838595 -1.71607e+06)
(8.77498e-08 -637540 -1.52078e+06)
(8.05857e-08 -420274 -1.4075e+06)
(8.04243e-08 -203597 -1.13414e+06)
(9.92731e-08 3299.14 -901915)
(9.99189e-08 165139 -731884)
(1.04291e-07 301273 -596456)
(1.06267e-07 425639 -471676)
(1.04311e-07 537766 -346840)
(1.02466e-07 638644 -218675)
(1.03343e-07 721383 -76319.5)
(1.0138e-07 789963 81068.4)
(1.12046e-07 836603 262807)
(1.13373e-07 878789 462993)
(1.31203e-07 870739 725008)
(1.55802e-07 951619 981760)
(2.20162e-07 679418 1.522e+06)
(2.06162e-07 -266193 -221796)
(3.2555e-07 -407266 -208299)
(2.40122e-07 -532859 -511771)
(2.68507e-07 -516126 -647135)
(2.79932e-07 -434866 -626992)
(1.88551e-07 -344645 -604477)
(7.23231e-08 -217571 -482821)
(4.12941e-08 -75634 -307119)
(3.49676e-08 52587.5 -148726)
(3.17554e-08 158868 -13903)
(2.75163e-08 251581 109901)
(3.02958e-08 335602 230462)
(4.32825e-08 404826 335335)
(6.02669e-08 458657 426919)
(7.93881e-08 504055 514736)
(1.04532e-07 538939 610759)
(1.3317e-07 582496 713008)
(1.70246e-07 591152 850222)
(2.1459e-07 697606 973136)
(2.50776e-07 511219 1.265e+06)
(1.38923e-07 -275005 -517542)
(1.57868e-07 -206483 -251283)
(1.85023e-07 -120711 -193788)
(2.01599e-07 -144557 -272238)
(1.55386e-07 -100773 -270851)
(4.30289e-07 -49081 -250696)
(4.37534e-07 11553.6 -212589)
(4.19258e-07 70539.9 -160797)
(4.09211e-07 118643 -111079)
(4.00603e-07 153325 -71317.3)
(4.22713e-07 176441 -42114.1)
(4.27845e-07 190450 -15704.3)
(4.27816e-07 199363 10669)
(4.30774e-07 205036 40148.1)
(3.95937e-07 210041 74640.3)
(4.24378e-07 213772 117513)
(3.98488e-07 222248 167811)
(4.24809e-07 221593 237281)
(3.91556e-07 256080 306543)
(3.43467e-07 192431 452830)
(7.87909e-08 -187839 -393695)
(8.42764e-08 -154119 -285010)
(9.1436e-08 -56254.3 -143010)
(1.00725e-07 -26618.9 -94885.2)
(7.34978e-08 -2103.65 -73614.2)
(1.13648e-07 22630.2 -51814)
(1.33003e-07 47102.8 -28104.5)
(1.26014e-07 69745.1 -2504.21)
(1.03095e-07 90132.8 24899.5)
(7.24885e-08 107959 53161.8)
(4.48923e-08 122303 77966.8)
(2.25314e-08 133698 100064)
(5.07433e-09 143175 120986)
(-7.86737e-09 151260 141982)
(-1.81111e-08 158904 163683)
(-2.81204e-08 164750 187856)
(-3.77312e-08 173320 213348)
(-4.87724e-08 172686 247527)
(-6.15765e-08 198403 277335)
(-7.22122e-08 145377 351450)
(3.62849e-08 -97018.6 -204532)
(4.3138e-08 -98583.4 -218185)
(3.83612e-08 -47316.1 -147682)
(3.36555e-08 -10121.5 -89477.5)
(2.61372e-08 12911 -55675.8)
(1.81786e-08 28092.6 -36835.6)
(1.36078e-08 38477.3 -25696.3)
(9.941e-09 45828.9 -18320.4)
(6.74993e-09 51254.4 -12801)
(4.06743e-09 55313.1 -7053.82)
(2.07481e-09 58569.5 -392.471)
(8.34526e-10 61329.3 7441.13)
(2.70134e-10 63835 16607.3)
(2.42736e-10 66156.1 27384.9)
(6.583e-10 68691.9 39885.3)
(1.53374e-09 70888.1 54892.6)
(2.92075e-09 74859.4 71788)
(5.16059e-09 75403.5 94358.7)
(8.54111e-09 88798.6 115625)
(1.42085e-08 67313.6 160444)
(1.38284e-08 -35866.8 -65046.5)
(1.98631e-08 -44830 -105739)
(1.6712e-08 -26411.4 -88172.6)
(1.19346e-08 -4743.62 -57358.4)
(8.44184e-09 11802.8 -31150.7)
(5.10812e-09 23293 -11877.4)
(2.88442e-09 31402.6 2409.2)
(1.73749e-09 37605.8 13807.7)
(1.03827e-09 42101.5 22492.2)
(6.02792e-10 45499 29345.8)
(3.42654e-10 48144.4 35169.1)
(1.97673e-10 50328.2 40600.5)
(1.21315e-10 52219.7 46006.6)
(7.67017e-11 53880.5 51773.5)
(3.32402e-11 55540.7 58009.6)
(-3.93617e-11 56741.3 65307.4)
(-1.78442e-10 58996.6 73215.3)
(-4.71799e-10 58291.8 84213.1)
(-1.05953e-09 66704.7 93807.4)
(-2.61894e-09 49034.8 118145)
(2.89546e-09 -6155.07 -15035)
(6.27169e-09 -11229.3 -37599.6)
(6.08611e-09 -6931.9 -41407.6)
(4.50257e-09 1236.65 -35206.6)
(3.06757e-09 8842.06 -26573.9)
(2.00547e-09 14568.5 -18908.4)
(1.28513e-09 18468.4 -12933.6)
(8.39667e-10 20963.5 -8475.44)
(5.46894e-10 22548.8 -4672.51)
(3.53211e-10 23679.4 -1105.52)
(2.27103e-10 24584.1 2453.39)
(1.46277e-10 25362.7 6194.74)
(9.41473e-11 26108.7 10229)
(5.91647e-11 26837.3 14701.4)
(3.4788e-11 27698.3 19657.3)
(1.95902e-11 28453 25389)
(1.68858e-11 29900.7 31676.5)
(3.99154e-11 29996.6 39896)
(1.17977e-10 35139.1 47400.4)
(4.68469e-10 26506.6 63437.1)
(-1.62877e-10 3332.91 10212.2)
(8.3949e-10 1088.93 -1420.74)
(1.3136e-09 280.679 -7761.31)
(1.23914e-09 1990.07 -9033.85)
(9.59819e-10 4794.56 -7488.24)
(6.92834e-10 7639.27 -4830.44)
(4.82916e-10 10150.2 -1855.41)
(3.28517e-10 12343.7 1113.37)
(2.17835e-10 14226.8 4003.68)
(1.41163e-10 15747.8 6574.26)
(9.00582e-11 16948.9 8920.69)
(5.65935e-11 17927.1 11175.3)
(3.42172e-11 18723.7 13434.6)
(1.88278e-11 19387.5 15831.6)
(8.51789e-12 19996.8 18393.4)
(2.45114e-12 20421.9 21359)
(-4.55763e-13 21183.7 24563.1)
(-3.0767e-12 20928 28949.5)
(-1.07918e-11 23884.3 32939.5)
(-8.12602e-11 17700.5 42469.8)
(1.56925e-11 2207.82 4575.59)
(-2.70739e-12 3843.3 5111.67)
(-1.00071e-11 4045.58 3668.01)
(1.56113e-11 4310.68 1916.08)
(3.30538e-11 4832.23 725.119)
(3.53115e-11 5504.34 171.769)
(2.8527e-11 6216.39 95.8576)
(1.90225e-11 6904.75 321.146)
(1.11474e-11 7510.33 810.269)
(5.77649e-12 8060.32 1510.39)
(2.41546e-12 8560.32 2410.19)
(3.3265e-13 9025.96 3496.77)
(-9.12109e-13 9467.44 4771.62)
(-1.44921e-12 9881.24 6248.58)
(-1.35868e-12 10310.8 7924.59)
(-8.75893e-13 10662.1 9889.47)
(-3.45435e-13 11225.5 12046.4)
(1.38935e-13 11235.3 14910.3)
(6.0616e-13 13032.6 17514.7)
(1.37142e-11 9757.25 23256.5)
(-2.56098e-12 3014.81 7834.86)
(1.41979e-13 4703.72 7668.13)
(1.26719e-12 4205.75 7354.58)
(-8.50082e-13 4302.48 6903.11)
(-2.25219e-12 4417.06 6452.07)
(-2.49554e-12 4578.19 6065.82)
(-2.14987e-12 4765.82 5741.29)
(-1.66187e-12 5000.77 5539.44)
(-1.23452e-12 5250.02 5447.91)
(-9.08947e-13 5528.62 5489.2)
(-6.46115e-13 5806.65 5644.22)
(-4.05762e-13 6093.58 5925.39)
(-1.81142e-13 6367.63 6314.47)
(-2.18814e-15 6627.79 6839.93)
(9.61713e-14 6890.99 7475.02)
(1.08512e-13 7085.92 8296.14)
(6.87261e-14 7412.99 9214.86)
(1.38665e-15 7328.11 10583.3)
(3.58705e-14 8417.98 11765.3)
(-2.26013e-12 6203.2 14829.6)
(4.37461e-13 2286.77 5854.72)
(5.96399e-14 3698.6 5941.84)
(-1.6774e-13 3362.22 5601.13)
(3.13586e-14 3333.45 5298.78)
(2.33616e-13 3351.11 5081.87)
(3.0701e-13 3395.41 4942.42)
(2.93309e-13 3451.79 4809.14)
(2.51086e-13 3526.56 4714.74)
(2.08277e-13 3608.33 4648.22)
(1.69346e-13 3703.36 4632.63)
(1.29949e-13 3807.13 4668.99)
(8.78636e-14 3920.89 4771.3)
(4.66137e-14 4046.88 4938.07)
(1.3066e-14 4170.1 5182.26)
(-7.12906e-15 4320.87 5498.2)
(-1.32243e-14 4427.69 5914.41)
(-1.02125e-14 4648.19 6388.35)
(-3.86605e-16 4578.49 7131.39)
(-1.99401e-14 5330.97 7684.85)
(3.67296e-13 3893.92 9320.72)
(-8.91293e-14 1929.2 5159.58)
(-2.24644e-14 3118.56 5138.44)
(2.68812e-14 2829.01 4970.81)
(6.79696e-15 2845.98 4806.99)
(-2.59183e-14 2858.18 4678.37)
(-4.47178e-14 2887.89 4611.48)
(-4.95269e-14 2911.15 4531.27)
(-4.76957e-14 2953.6 4490.76)
(-4.25696e-14 2988 4447.56)
(-3.54019e-14 3037.5 4441.27)
(-2.64606e-14 3081.12 4443.34)
(-1.70562e-14 3137.11 4487.36)
(-8.64498e-15 3192.3 4546.42)
(-2.55223e-15 3248.49 4655.93)
(7.82126e-16 3323.03 4788.59)
(1.74909e-15 3362.05 4983.15)
(1.40551e-15 3492.64 5199.21)
(-1.38473e-16 3390.87 5610.17)
(4.77171e-15 3942.52 5859.28)
(-5.93493e-14 2843.24 6837.51)
(1.56272e-14 1412.62 3705.68)
(5.89814e-15 2305.91 3776.04)
(-3.73716e-15 2128.11 3634.97)
(-3.04352e-15 2109.77 3505.42)
(1.90666e-15 2130.63 3437.03)
(6.32845e-15 2148.78 3405.21)
(8.79179e-15 2177.16 3390.8)
(9.55465e-15 2205.16 3387.04)
(8.90558e-15 2239.85 3401.94)
(7.27419e-15 2272.44 3424.85)
(5.13427e-15 2311.81 3470.95)
(3.04557e-15 2349.56 3527.95)
(1.39808e-15 2397.36 3608.02)
(3.53641e-16 2436.48 3700.25)
(-1.38644e-16 2497.3 3817.57)
(-2.46562e-16 2524.88 3952.25)
(-1.87629e-16 2627.57 4104.38)
(6.70882e-17 2545.98 4375.14)
(-9.70001e-16 2973.12 4494.33)
(9.57238e-15 2122.13 5132.73)
(-3.52375e-15 1075.34 2906.13)
(-1.86771e-15 1769.48 2942.67)
(3.66204e-16 1670 2812.99)
(8.43785e-16 1644.25 2706.17)
(1.04028e-16 1664.79 2645.84)
(-9.62213e-16 1677.65 2610.2)
(-1.78353e-15 1702.14 2595.01)
(-2.13645e-15 1720.39 2583.2)
(-2.01915e-15 1748.96 2593.26)
(-1.58236e-15 1769.66 2603.97)
(-1.04101e-15 1799.66 2640.53)
(-5.62288e-16 1823.29 2680.58)
(-2.31168e-16 1859.05 2744.91)
(-4.83448e-17 1883.42 2812.1)
(2.47731e-17 1928.17 2905.77)
(3.51249e-17 1945.47 3004.02)
(2.56538e-17 2018.47 3126.65)
(-1.93925e-17 1958.27 3332.41)
(1.95466e-16 2279.47 3424.18)
(-1.54255e-15 1632.74 3909.84)
(6.40884e-16 711.32 1836.34)
(4.65254e-16 1179.49 1912.5)
(4.74688e-17 1131.89 1833.8)
(-1.33894e-16 1113.58 1764.58)
(-5.75755e-17 1135.04 1735.02)
(1.47631e-16 1147.12 1720.68)
(3.3943e-16 1172.79 1728.98)
(4.27104e-16 1189.07 1735.35)
(4.03071e-16 1218.51 1763.98)
(3.02499e-16 1236.88 1786.79)
(1.8725e-16 1267.56 1834.73)
(9.25601e-17 1287.97 1877.37)
(3.39474e-17 1322.71 1944.45)
(5.27981e-18 1344.33 2004.27)
(-4.36647e-18 1384.38 2090.05)
(-4.78601e-18 1402.05 2171.08)
(-3.42094e-18 1461.8 2272.96)
(4.65874e-18 1423.92 2426.74)
(-3.74805e-17 1664.28 2493.64)
(2.47709e-16 1191.92 2855.02)
(-1.43356e-16 534.045 1431.13)
(-1.24303e-16 882.433 1455.38)
(-4.1428e-17 860.222 1393.76)
(7.55335e-18 845.549 1341.59)
(5.45553e-18 860.04 1308.46)
(-2.8033e-17 868.807 1286.41)
(-6.33315e-17 883.824 1277.06)
(-7.8937e-17 894.682 1270.33)
(-7.27902e-17 911.683 1276.09)
(-5.26214e-17 924.069 1284.11)
(-3.09008e-17 941.353 1306.18)
(-1.42931e-17 955.414 1332.45)
(-4.7493e-18 975.471 1371.4)
(-5.47022e-19 990.451 1415.13)
(6.60076e-19 1015.29 1472.25)
(5.99273e-19 1027.81 1535.11)
(4.45953e-19 1066.67 1610.95)
(-9.942e-19 1040.88 1734.18)
(6.82973e-18 1211.97 1798.7)
(-3.96227e-17 874.914 2078.06)
(2.86249e-17 367.727 851.928)
(3.40807e-17 553.165 879.355)
(1.73689e-17 575.653 865.499)
(4.46955e-18 569.549 851.917)
(1.51094e-18 583.744 841.95)
(5.48064e-18 592.867 835.952)
(1.06947e-17 607.009 839.748)
(1.28677e-17 616.448 843.342)
(1.15603e-17 632.242 856.739)
(8.08392e-18 642.707 869.018)
(4.56114e-18 658.566 892.89)
(1.99837e-18 669.987 916.432)
(6.11309e-19 687.608 951.246)
(4.78569e-20 699.655 985.357)
(-9.10388e-20 719.642 1031.63)
(-6.81081e-20 730.461 1077.78)
(-5.6767e-20 758.015 1135.44)
(1.99951e-19 742.57 1222.19)
(-1.20725e-18 859.554 1266.65)
(6.32004e-18 620.515 1464.93)
(-2.83059e-17 487.743 589.673)
(-1.12926e-17 357.065 467.474)
(-8.30883e-18 404.836 469.823)
(-5.21902e-18 400.585 478.397)
(-2.88125e-18 411.798 479.892)
(-1.8357e-18 420.244 477.116)
(-1.69254e-18 430.78 479.366)
(-1.67861e-18 435.879 480.968)
(-1.47596e-18 445.396 488.036)
(-1.05063e-18 450.376 495.231)
(-6.1389e-19 458.515 509.974)
(-2.81557e-19 463.235 526.083)
(-9.40062e-20 472.084 549.675)
(-1.37553e-20 477.018 574.571)
(8.1674e-21 487.077 608.12)
(6.06909e-21 492.259 642.473)
(7.51027e-21 504.222 688.044)
(-4.22775e-20 495.501 752.647)
(2.18679e-19 562.401 794.121)
(-1.00108e-18 411.381 935.858)
(-1.58809e-16 2142.14 1570.3)
(-2.30185e-17 410.473 351.041)
(-4.02085e-18 207.805 96.56)
(1.66748e-19 186.997 71.7364)
(7.69163e-19 192.645 81.0151)
(6.40843e-19 207.243 88.7032)
(4.15016e-19 219.66 93.0811)
(2.40847e-19 227.387 98.1199)
(1.33158e-19 235.83 101.838)
(6.98503e-20 240.996 106.841)
(3.44102e-20 246.432 113.171)