/*--------------------------------*- C++ -*----------------------------------*\
| =========                 |                                                 |
| \\      /  F ield         | OpenFOAM: The Open Source CFD Toolbox           |
|  \\    /   O peration     | Version:  4.1                                   |
|   \\  /    A nd           | Web:      www.OpenFOAM.org                      |
|    \\/     M anipulation  |                                                 |
\*---------------------------------------------------------------------------*/
FoamFile
{
    version     2.0;
    format      ascii;
    class       volScalarField;
    location    "7";
    object      p;
}
// * * * * * * * * * * * * * * * * * * * * * * * * * * * * * * * * * * * * * //

dimensions      [0 2 -2 0 0 0 0];

internalField   nonuniform List<scalar> 
1280
(
0.0158738
0.0103436
0.210463
0.123067
0.113466
0.0687672
-0.162492
-0.235799
-0.26859
-0.575445
-1.21522
-1.18938
-1.88776
-3.14176
-3.25032
-5.26955
-8.14812
-7.51252
-14.079
-17.9057
-19.815
-6.11479
16.9445
26.3106
26.9565
29.8919
11.1279
14.2861
15.6735
15.6932
15.2641
14.7411
13.9454
12.8611
11.6172
10.0348
8.47028
6.08332
4.39328
-0.41191
-17.6209
-3.0138
2.85617
7.53318
17.2988
17.1636
17.199
17.1995
17.331
17.3728
17.379
17.3578
17.1832
17.1723
17.1392
17.2245
7.48255
2.80518
-3.05335
-17.8184
-0.603659
4.17618
5.85051
8.21905
9.76551
11.3295
12.5542
13.619
14.395
14.8991
15.3085
15.265
13.8848
10.9187
29.512
26.5142
25.803
16.3709
-6.68881
-20.3602
-18.4445
-14.6012
-7.5102
-7.96751
-5.27996
-2.9455
-2.74169
-1.739
-1.01726
-0.956425
-0.507853
-0.227688
-0.144014
-0.0950187
0.0547848
0.09812
0.123548
0.159731
0.0239702
0.0357911
-0.019852
0.797781
1.09883
1.22622
0.648812
0.147762
-1.109
-1.17295
-0.171362
0.898539
1.48389
-0.0876356
-0.310621
-0.895121
-1.41313
-0.562577
0.273009
0.241787
0.132006
0.0533372
1.29918
1.9781
2.3334
1.33057
0.33985
-1.61647
-1.65832
0.165133
2.12368
3.08233
0.456816
-0.895157
-2.96676
-3.49868
-1.02622
0.670113
0.597321
0.457859
0.321903
1.51422
2.48075
3.201
1.64136
-1.04892
-3.55854
-2.39864
0.429303
2.46201
3.5952
0.820101
-2.52924
-5.88948
-5.9908
-1.28218
1.17501
0.875093
0.536011
0.642047
1.89897
3.27702
3.76378
1.6259
-3.31587
-5.5385
-4.21406
0.747179
2.95048
3.86269
0.971661
-5.21037
-10.2237
-9.2191
-1.45415
1.97363
1.34255
0.716735
1.10498
2.32457
4.08626
3.82784
1.72696
-4.70746
-6.64113
-6.43785
1.29652
4.00637
4.53522
1.08483
-9.0622
-15.7687
-14.3267
-1.47031
3.40586
1.95984
0.569058
1.77774
2.80116
4.80981
3.86372
2.03276
-4.62715
-7.83009
-8.27256
2.33297
6.70546
6.31048
2.29091
-10.9319
-18.5132
-18.2863
-1.52591
5.8035
3.95364
0.378698
2.63676
3.26703
5.32969
4.02717
2.44717
-3.87313
-9.55269
-9.10307
3.39159
11.139
9.09764
4.72167
-10.122
-19.2668
-17.6965
-0.251225
7.67081
4.26668
-2.45669
3.69718
3.65529
5.66293
4.20053
2.94066
-2.73409
-9.95688
-8.41781
4.78395
15.6819
11.9618
7.64355
-7.47462
-20.2042
-17.7676
-0.371387
11.0204
8.86889
-1.99295
4.77113
3.89755
5.7672
4.17788
3.28687
-1.74028
-9.12515
-8.08986
5.22998
17.3814
13.049
8.91339
-3.88911
-16.2063
-15.5257
-1.19899
10.2613
20.9153
21.5049
5.66203
3.98705
5.72709
4.11801
3.43371
-1.24259
-7.80828
-6.79464
6.00983
16.0556
12.3121
8.82957
-2.14364
-13.5774
-13.3171
-0.740026
15.0417
34.7733
19.399
5.66361
3.97595
5.68226
4.04098
3.12326
-2.32813
-9.26445
-8.175
5.80853
16.3897
13.2951
9.33138
-1.60942
-13.6698
-13.9661
-1.52883
15.0844
34.7489
19.2722
4.78679
3.90813
5.74422
4.10483
2.689
-4.01133
-10.6943
-9.3375
5.15718
15.5202
13.8355
9.4231
-2.28674
-16.1612
-17.3083
-4.87691
9.56584
20.8492
21.8782
3.7069
3.6253
5.59781
4.04599
2.07707
-5.37568
-10.2197
-8.81135
4.75951
12.8379
12.6765
8.20698
-4.41588
-21.694
-21.2293
-5.85891
10.4081
9.99903
-0.534454
2.63706
3.20814
5.25867
3.93316
1.6457
-5.68575
-9.4115
-7.33239
3.56308
9.10761
9.39475
5.39957
-6.73127
-23.0617
-21.4942
-5.13747
7.15447
5.1868
-1.08109
1.77708
2.72129
4.69504
3.88224
1.41958
-4.23293
-8.47957
-4.94881
2.56252
6.48649
6.22293
2.85975
-8.11412
-22.3524
-23.2271
-6.18487
5.4042
4.65681
1.21877
1.10879
2.26634
3.95753
3.98783
1.43483
-2.21389
-6.46056
-2.95311
1.94811
5.12668
4.43186
1.46197
-7.54278
-18.996
-21.3373
-5.58805
3.25244
2.47006
0.982856
0.652027
1.87847
3.12582
3.59455
1.67275
-0.909981
-3.10783
-1.6462
1.56123
4.34262
3.4716
0.974908
-5.39337
-13.5516
-14.9955
-4.33178
1.87422
1.69641
1.06424
0.330035
1.50789
2.39083
2.7923
1.75858
-0.441874
-1.63635
-1.11591
1.19722
3.34678
2.4214
0.615631
-3.0553
-7.56985
-9.19518
-3.20354
1.03673
1.08188
0.765795
0.0551968
1.28484
1.9403
2.19899
1.35731
-0.513194
-1.34211
-0.832904
0.816433
2.447
1.86836
0.46027
-1.16322
-3.2993
-5.23868
-2.42216
0.503891
0.715318
0.634715
-0.0232082
0.777645
1.02536
1.06654
0.542252
-0.467603
-1.08347
-0.972823
-0.110758
0.849483
0.757179
-0.167972
-0.417931
-0.934871
-1.97964
-1.16926
0.239777
0.318894
0.156539
64.4894
64.5772
64.4331
63.6889
62.1006
60.2388
57.9513
55.4796
53.0322
50.7642
48.6861
46.7869
45.0992
43.629
42.366
41.3197
40.4846
39.8167
39.421
38.9616
33.8282
34.9087
34.4031
34.6248
34.7279
34.982
35.2152
35.3302
35.437
35.4558
35.4759
35.4675
35.4509
35.4432
35.4267
35.4447
35.4529
35.5119
35.5435
35.632
39.2028
39.7255
38.5576
38.3612
38.0376
37.8351
37.7124
37.5588
37.4769
37.3805
37.317
37.2664
37.2288
37.2227
37.2193
37.2657
37.3016
37.4056
37.4789
37.6205
22.1664
23.9227
24.3211
25.1595
25.8276
26.4329
27.0893
27.6332
28.1992
28.7
29.1772
29.6169
30.017
30.3955
30.7259
31.0611
31.3276
31.6572
31.8599
32.2303
4.72746
7.09835
9.50034
11.6859
13.6045
15.1657
16.7443
18.1285
19.4661
20.6959
21.8389
22.9002
23.8739
24.776
25.5834
26.3336
26.9551
27.5707
27.944
28.4871
-18.4328
-15.8918
-12.6863
-10.079
-7.48734
-5.39146
-3.16278
-1.14093
0.851128
2.74826
4.57167
6.34341
8.07261
9.78983
11.4843
13.1882
14.8079
16.4095
17.6593
19.2917
-40.8219
-40.5513
-39.4947
-39.3297
-38.2745
-37.8196
-36.8738
-36.1652
-35.2868
-34.4433
-33.5649
-32.6799
-31.7634
-30.7627
-29.6272
-28.1727
-26.2592
-22.7765
-19.9722
-16.3535
-46.3882
-51.5737
-53.2738
-56.6607
-58.5522
-61.4245
-63.3224
-65.3685
-66.5645
-67.3404
-67.462
-67.1203
-66.3314
-65.2459
-63.9927
-62.6983
-61.2544
-59.7285
-58.2949
-54.5125
3.18345
-4.43122
-7.62837
-13.4424
-17.5565
-23.2309
-28.1779
-33.7894
-38.7723
-43.6271
-47.7704
-51.2992
-53.9205
-55.6123
-56.2208
-56.0842
-55.5426
-53.6788
-53.5637
-54.0098
68.7636
64.7629
63.7885
60.6604
59.2969
56.5229
54.7422
52.2482
50.1633
47.7455
45.3392
42.6269
39.6867
36.5034
33.3837
30.5863
28.7649
29.0456
29.2342
24.4906
81.0572
81.7054
82.4002
81.8093
82.6624
81.768
81.6852
80.308
78.8978
76.706
74.1954
71.2774
68.1756
65.0416
62.1955
59.9675
58.5381
57.6703
57.7844
55.9703
61.8614
63.9739
66.1668
66.6923
69.3688
70.233
72.4556
73.7925
75.39
76.4694
77.1357
77.1263
76.3951
75.0119
73.4177
72.1945
72.1048
72.8182
73.7056
73.7129
41.3759
42.9309
45.4768
45.2361
48.0817
48.3629
50.3675
51.4403
52.9377
54.3392
55.787
57.275
58.7633
60.2309
61.6506
63.0607
64.4385
65.9863
67.174
68.5975
13.7371
14.7055
18.0867
17.4749
21.0581
21.1961
23.7261
24.9189
26.7751
28.423
30.161
31.9383
33.7577
35.6548
37.6016
39.6605
41.6838
43.9037
45.6263
48.0069
-15.5888
-16.7775
-13.3361
-15.2197
-11.7975
-12.7076
-10.5134
-10.1033
-8.70255
-7.66377
-6.43557
-5.19388
-3.88093
-2.41958
-0.782011
1.22286
3.35984
6.09085
8.44114
11.9994
-23.5374
-28.0102
-26.271
-30.7905
-29.4827
-32.6824
-32.7956
-34.6223
-35.4171
-36.5676
-37.3956
-38.1259
-38.5454
-38.5068
-37.9018
-36.8507
-35.9343
-34.5412
-33.4158
-30.4129
22.1482
15.7003
16.9315
8.90681
7.77707
1.76997
-1.59054
-6.36099
-10.3857
-14.6562
-18.6419
-22.4715
-25.8592
-28.5854
-30.4649
-31.8325
-32.9416
-33.8824
-35.4497
-34.8753
42.4083
35.0043
43.0684
35.8672
37.8457
34.3375
33.0276
30.3736
28.0235
25.3551
22.6945
20.0375
17.5883
15.5977
14.1879
13.0631
12.1893
11.4569
9.9081
7.84335
50.9615
28.9037
37.1813
26.4298
23.9559
17.5682
12.8709
7.8126
3.4396
-0.481486
-3.68958
-6.10728
-7.55926
-7.85277
-6.81679
-4.69884
-1.81798
2.29095
6.41703
7.69275
732.711
650.503
601.599
545.718
497.021
450.057
406.389
365.132
326.269
289.498
254.641
221.505
189.905
159.79
131.228
103.456
76.4719
54.0062
28.855
-6.83601
733.024
650.815
601.91
546.029
497.331
450.367
406.699
365.442
326.579
289.808
254.951
221.817
190.216
160.101
131.54
103.766
76.7823
54.3149
29.1618
-6.52432
51.2538
29.197
37.4747
26.7238
24.25
17.8626
13.1653
8.10703
3.73385
-0.187567
-3.3962
-5.81458
-7.26742
-7.56214
-6.52791
-4.41191
-1.53299
2.57519
6.70232
7.9772
42.7446
35.3428
43.4088
36.2095
38.19
34.6836
33.3755
30.7231
28.3744
25.7074
23.0481
20.3923
17.9443
15.955
14.5457
13.42
12.5459
11.8141
10.2667
8.20268
22.5197
16.0718
17.3032
9.27873
8.14949
2.14316
-1.21646
-5.98566
-10.0089
-14.2776
-18.261
-22.0876
-25.4719
-28.1944
-30.0716
-31.4398
-32.5509
-33.4941
-35.0641
-34.4959
-23.2019
-27.678
-25.9432
-30.4648
-29.1616
-32.3641
-32.4814
-34.312
-35.1111
-36.2662
-37.0991
-37.8347
-38.2597
-38.2268
-37.6287
-36.5866
-35.6787
-34.292
-33.1716
-30.1775
-15.337
-16.5323
-13.0959
-14.9841
-11.5675
-12.4836
-10.2951
-9.89192
-8.49757
-7.46604
-6.24497
-5.01063
-3.70474
-2.24972
-0.617273
1.38402
3.51823
6.24715
8.59393
12.1486
13.9587
14.9201
18.2973
17.6815
21.2608
21.3941
23.9208
25.109
26.962
28.6063
30.3413
32.1159
33.9328
35.8276
37.772
39.8285
41.8492
44.0666
45.7868
48.1685
41.5456
43.0983
45.6445
45.4032
48.2491
48.5302
50.5354
51.6092
53.1078
54.5108
55.9599
57.4484
58.936
60.4022
61.8206
63.2305
64.609
66.1593
67.3489
68.7748
62.1183
64.2279
66.42
66.9422
69.6162
70.4761
72.693
74.023
75.6117
76.6813
77.3358
77.3164
76.5812
75.2038
73.6245
72.4234
72.3567
73.0876
73.9793
73.9906
81.1709
81.8216
82.5113
81.9195
82.7688
81.8743
81.7912
80.4187
79.016
76.8383
74.3477
71.4579
68.3901
65.293
62.4828
60.2866
58.8829
58.0252
58.1366
56.3269
69.1582
65.1758
64.2074
61.0937
59.7416
56.9826
55.2159
52.7362
50.6625
48.2511
45.8426
43.1201
40.161
36.9519
33.8027
30.9741
29.1244
29.3876
29.5746
24.8267
3.53647
-4.07934
-7.28168
-13.0996
-17.2144
-22.8891
-27.8351
-33.4423
-38.4187
-43.2644
-47.395
-50.909
-53.5165
-55.1938
-55.7894
-55.6441
-55.1047
-53.2694
-53.175
-53.6633
-46.1725
-51.3809
-53.0894
-56.4869
-58.3909
-61.2762
-63.1898
-65.253
-66.4706
-67.2737
-67.4293
-67.1288
-66.3898
-65.361
-64.1662
-62.9291
-61.5231
-60.0265
-58.6098
-54.8418
-40.8519
-40.6078
-39.5761
-39.4372
-38.4083
-37.9815
-37.0655
-36.3885
-35.5421
-34.7304
-33.8819
-33.0234
-32.1279
-31.141
-30.0106
-28.5475
-26.6025
-23.1271
-20.3372
-16.7256
-18.5656
-16.0351
-12.838
-10.2392
-7.65526
-5.56651
-3.34431
-1.32787
0.660129
2.55503
4.37835
6.15231
7.88607
9.61005
11.3127
13.0262
14.6562
16.2655
17.5212
19.1646
4.57595
6.94655
9.35443
11.5453
13.4685
15.0338
16.6163
18.0048
19.347
20.5815
21.7295
22.7958
23.7744
24.6812
25.4927
26.2466
26.8713
27.4898
27.8647
28.41
22.0604
23.8217
24.2243
25.0667
25.738
26.3463
27.0054
27.5522
28.1207
28.624
29.1034
29.5453
29.9473
30.3275
30.6594
30.996
31.2637
31.5945
31.7979
32.1689
39.1677
39.6926
38.5189
38.32
37.9937
37.7894
37.6649
37.5099
37.4266
37.3291
37.2646
37.2132
37.175
37.1683
37.1645
37.2106
37.2463
37.3502
37.4234
37.5649
33.7843
34.8683
34.3551
34.5734
34.6731
34.9252
35.1569
35.2707
35.3763
35.3944
35.4137
35.4048
35.3878
35.3799
35.3632
35.381
35.3891
35.448
35.4793
35.5673
64.5465
64.6258
64.4634
63.7065
62.1056
60.233
57.9379
55.4583
53.0025
50.7277
48.6442
46.7408
45.0498
43.5769
42.3119
41.2638
40.4273
39.7575
39.3608
38.8988
)
;

boundaryField
{
    outletWall
    {
        type            fixedValue;
        value           uniform 0;
    }
    fineWalls
    {
        type            zeroGradient;
    }
    fineFrontAndBack
    {
        type            zeroGradient;
    }
    fineplugLeft
    {
        type            cyclicAMI;
        value           nonuniform List<scalar> 
20
(
31.0869
32.4155
33.07
34.0817
35.0628
36.2162
37.4754
38.8684
40.3778
42.0017
43.75
45.5605
47.2409
52.6271
54.1694
55.0718
56.2133
54.9354
50.4388
47.6286
)
;
    }
    fineplugRight
    {
        type            cyclicAMI;
        value           nonuniform List<scalar> 
20
(
30.9983
32.3238
32.9761
33.9856
34.9641
36.1154
37.3724
38.7636
40.2716
41.8952
43.6438
45.455
47.1436
52.5914
54.0888
54.9873
56.1258
54.8449
50.3629
47.5652
)
;
    }
    inletOutletLeft
    {
        type            cyclicAMI;
        value           nonuniform List<scalar> 
20
(
31.0869
32.4155
33.07
34.0817
35.0628
36.2162
37.4754
38.8684
40.3778
42.0017
43.75
45.5605
47.2409
52.6271
54.1694
55.0718
56.2133
54.9354
50.4388
47.6286
)
;
    }
    inletLeft
    {
        type            zeroGradient;
    }
    inletWallsLeft
    {
        type            zeroGradient;
    }
    inletFacesLeft
    {
        type            zeroGradient;
    }
    inletOutletRight
    {
        type            cyclicAMI;
        value           nonuniform List<scalar> 
20
(
30.9983
32.3238
32.9761
33.9856
34.9641
36.1154
37.3724
38.7636
40.2716
41.8952
43.6438
45.455
47.1436
52.5914
54.0888
54.9873
56.1258
54.8449
50.3629
47.5652
)
;
    }
    inletRight
    {
        type            zeroGradient;
    }
    inletWallsRight
    {
        type            zeroGradient;
    }
    inletFacesRight
    {
        type            zeroGradient;
    }
}


// ************************************************************************* //
