/*--------------------------------*- C++ -*----------------------------------*\
| =========                 |                                                 |
| \\      /  F ield         | OpenFOAM: The Open Source CFD Toolbox           |
|  \\    /   O peration     | Version:  4.1                                   |
|   \\  /    A nd           | Web:      www.OpenFOAM.org                      |
|    \\/     M anipulation  |                                                 |
\*---------------------------------------------------------------------------*/
FoamFile
{
    version     2.0;
    format      ascii;
    class       surfaceScalarField;
    location    "7";
    object      phi;
}
// * * * * * * * * * * * * * * * * * * * * * * * * * * * * * * * * * * * * * //

dimensions      [0 3 -1 0 0 0 0];

internalField   nonuniform List<scalar> 
2360
(
-254.92
1104.51
-1359.43
1104.51
1104.51
2332.02
-1227.51
2332.02
2332.02
2332.02
3687.76
-1355.73
3687.75
3687.76
5341.92
-1654.16
5341.92
5341.92
7817.59
-2475.67
7817.59
7817.6
11842.6
-4024.97
11842.6
11842.6
12229.1
13713.1
15480.6
17120.8
18578.9
19906.7
15542.4
5627.56
16731
17851.7
18903.3
19887.2
20804.6
21657.6
22447
23173.8
23837.2
24434.5
24960.4
25394.4
25715
11554.1
14160.9
11554.2
11554.2
11554.2
-110.032
11664.2
-110.016
-109.999
-109.992
6.23095
-116.167
6.39523
6.44183
156.42
-149.973
156.425
156.429
156.431
-11499.2
11655.7
-11499.2
-11499.2
-11499.2
-25718.9
14219.6
-25397.8
-24963.5
-24437.4
-23839.8
-23176.2
-22449
-21659.2
-20805.8
-19887.9
-18903.6
-17851.6
-16730.7
-15541.8
-19862.3
5583.69
-18534.4
-17076.3
-15436.2
-13669.4
-12187.1
-11802.5
-11802.5
-11802.5
-7507.22
-4295.31
-7507.22
-7507.22
-4777.48
-2729.73
-4777.48
-4777.48
-3068.41
-1709.07
-3068.41
-3068.41
-1760.53
-1307.88
-1760.52
-1760.52
-1760.52
-648.223
-1112.3
-648.221
-648.22
536.134
-1184.35
-5140.59
5276.26
-5209.89
6040.23
-5154.88
4528.89
-4682.56
2537.21
-3644.95
-291.175
-2842.2
-223.245
-2736.2
3088.63
-2571.54
4805.54
-2277.2
5498.21
-1819.3
4484.23
-650.807
213.372
415.179
-3882.13
1133.42
-3203.78
1335.63
1990.69
1147.31
4794.47
1022.29
5171.46
996.514
3624.23
1039.99
2384.24
1377.41
-5285.7
5388.92
-5333.25
6087.78
-4979.19
4174.83
-3477.36
1035.39
-1267.78
-2500.76
-582.284
-908.737
-1975.59
4481.94
-2761.78
5591.73
-2548.27
5284.7
-1757.82
3693.78
-144.676
-1399.78
885.999
-4912.81
1865.36
-4183.14
1950.67
1905.38
1319.87
5425.28
916.709
5574.62
887.395
3653.54
981.03
2290.6
1246.14
-5469.53
5524.41
-5501.19
6119.45
-4809.37
3483.01
-3064.34
-709.643
-1314.37
-4250.73
126.846
-2349.95
-478.46
5087.24
-2272.31
7385.57
-2852.71
5865.11
-2018.84
2859.91
-355.728
-3062.89
1044.03
-6312.57
2430.47
-5569.58
2606.77
1729.09
1787.14
6244.91
1068.53
6293.23
890.821
3831.25
1000.8
2180.63
939.06
-5703.79
5654.8
-5685.51
6101.17
-4765.16
2562.66
-3365.85
-2108.96
-2356.73
-5259.85
-688.569
-4018.11
301.088
4097.58
-1071.86
8758.53
-2633.39
7426.63
-2354.46
2580.98
-570.049
-4847.3
1349.6
-8232.23
2880.93
-7100.9
3098.67
1511.35
2358.56
6985.01
1501.27
7150.53
1119.28
4213.23
1269.24
2030.67
499.223
-6009.98
5687.8
-5906.3
5997.48
-5089.68
1746.04
-4358.21
-2840.43
-3978.11
-5639.94
-2599.21
-5397.02
-318.642
1817.02
-202.958
8642.84
-1749.78
8973.46
-1945.81
2777
-346.483
-6446.63
1080.87
-9659.58
1974.5
-7994.53
2395.35
1090.49
2343.44
7036.92
1950.37
7543.59
1782.87
4380.73
2250.79
1562.75
20.285
-6463.08
5493.55
-6214.69
5749.09
-5718.11
1249.47
-5632.54
-2926.01
-5804.83
-5467.65
-5122.6
-6079.25
-2408.75
-896.83
-617.05
6851.14
-986.192
9342.6
-1207.56
2998.38
-721.924
-6932.26
-1045.19
-9336.31
-1350.61
-7689.11
-103.661
-156.455
1012.34
5920.92
1405.5
7150.43
1855.18
3931.05
3233.45
184.474
-1041.58
-7179.59
4948.23
-6669.49
5239
-6470.54
1050.52
-6873.42
-2523.13
-7547.87
-4793.2
-7713.66
-5913.46
-5656.32
-2954.17
-2780.55
3975.37
-1314.19
7876.24
-1261.19
2945.38
-2731.24
-5462.22
-4894.13
-7173.42
-5779.01
-6804.23
-3565.72
-2369.75
-1476.8
3832.01
-71.8578
5745.49
2150.05
1709.14
2540.73
-206.208
7082.84
-8280.58
3920.89
-7318.33
4276.75
-7245.52
977.705
-7993.11
-1775.55
-9211.7
-3574.61
-10434.4
-4690.76
-9835.63
-3552.93
-6745.47
885.204
-3389.03
4519.8
-3040.13
2596.48
-6193.55
-2308.8
-9239.6
-4127.36
-10670
-5373.82
-9146.47
-3893.29
-5962.74
648.269
-3771.55
3554.3
-4743.02
2680.61
-9049.86
4100.63
12252.6
-9934.12
2332.57
-8286.71
2629.34
-8026
716.996
-8987.33
-814.211
-10859.8
-1702.11
-13264.1
-2286.47
-14454.3
-2362.77
-12376.9
-1192.18
-8440.79
583.702
-7138.8
1294.48
-9499.96
52.3554
-12188.9
-1438.41
-14753.3
-2809.42
-16382.4
-2264.18
-15883.7
149.562
-14527.6
2198.16
-14481.1
2634.18
-14585.9
4205.43
9322.32
-11375.6
52.1005
-8848.4
102.176
-8363.83
232.422
-9661.36
483.323
-12215.1
851.626
-15533.1
1031.48
-18104.9
209.042
-17817.5
-1479.51
-14403.6
-2830.25
-10757
-2352.15
-9827.24
-877.362
-11355.3
89.6842
-14458.7
293.924
-17319.6
596.695
-18064.5
894.472
-16456.7
590.401
-13732.7
-89.7909
-9279.59
-247.704
-107.241
-11407.8
-2238.73
-8842
-2463.59
-8251.2
-358.375
-9348.5
1580.62
-11597.9
3101.04
-14337.5
3771.11
-15723.8
1595.31
-14180.6
-3022.67
-10697.9
-6312.96
-8499.54
-4550.54
-8803.94
-572.963
-10603.6
1889.34
-13835.2
3525.56
-17028.3
3789.73
-18022.5
1888.73
-16521.7
-910.365
-13820.2
-2791.34
-9405.1
-4662.8
-9628.51
-9943.29
-3846.85
-8248.78
-4158.1
-7872.2
-734.951
-8576.62
2285.03
-9937.59
4462.01
-11196
5029.52
-10321.8
721.078
-7264.17
-6080.28
-4381.18
-9195.95
-5095.64
-3836.08
-8501.97
2833.37
-11376.3
4763.7
-14164.8
6313.99
-16633.3
6258.24
-16661.1
1916.56
-14942.2
-2629.31
-14316.3
-3417.25
-14474.3
-4504.73
-12438.6
-8290.31
-4894.91
-7267.78
-5180.63
-7066.66
-936.074
-7572.87
2791.24
-8220.53
5109.68
-7996.8
4805.79
-5574.22
-1701.5
-2776.74
-8877.75
-1691.37
-10281.3
-3280.3
-2247.14
-6698.2
6251.26
-9842.65
7908.16
-11740
8211.3
-11371.6
5889.86
-7936.88
-1518.15
-4628.75
-5937.43
-4730.86
-3315.14
-8831.85
-403.731
-7109.6
-7188.2
-5453.01
-6619.38
-5749.45
-6262.69
-1292.77
-6397.76
2926.32
-6412.56
5124.47
-4749.78
3143.02
-1800.03
-4651.26
-448.883
-10228.9
-1302.14
-9428.07
-2502.86
-1046.42
-4215.23
7963.63
-6598.12
10291
-7815.85
9429.04
-6096.7
4170.72
-3116.54
-4498.31
-1002.09
-8051.88
1292.21
-5609.45
2092.34
-1203.85
610.307
-6474.7
-5652.69
-6185.66
-6038.49
-5495.89
-1982.54
-5020.25
2450.68
-4388.4
4492.62
-1810.94
565.559
231.338
-6693.54
-358.541
-9639.02
-2162.38
-7624.23
-2516.28
-692.523
-2341.64
7788.99
-3119.82
11069.2
-3762.47
10071.7
-2060.85
2469.1
-290.901
-6268.26
593.53
-8936.32
1144.76
-6160.68
2669.34
-2728.43
-745.328
-6022.13
-5620.6
-5919.73
-6140.89
-4937.43
-2964.83
-3605.6
1118.85
-2189.36
3076.38
82.9105
-1706.71
267.51
-6878.14
-1579.78
-7791.73
-3145.4
-6058.6
-2744.1
-1093.82
-1473.92
6518.8
-578.397
10173.7
-199.693
9692.99
881.344
1388.06
1652.76
-7039.67
1588.31
-8871.87
1430.34
-6002.71
1865.39
-3163.48
-1355.61
-5710.58
-5495.76
-5720.34
-6131.13
-4781.11
-3904.06
-2646.86
-1015.4
-255.515
685.039
343.186
-2305.41
-1223.7
-5311.25
-2858.51
-6156.92
-3391.62
-5525.49
-2553.65
-1931.79
-1174.37
5139.51
519.959
8479.38
1981.64
8231.3
2805.75
563.954
2536.12
-6770.04
1646.04
-7981.79
1065.96
-5422.64
1157.71
-3255.23
-1852.06
-5472.58
-5372.56
-5509.27
-6094.44
-4985.79
-4427.54
-3411.31
-2589.89
-1720.16
-1006.11
-1826.86
-2198.71
-2771.72
-4366.38
-3234.03
-5694.62
-3021.14
-5738.38
-1976.25
-2976.67
-846.994
4010.25
654.788
6977.6
2344.59
6541.5
3029.02
-120.479
2299.01
-6040.02
1381.16
-7063.94
993.327
-5034.81
1053.89
-3315.79
-2153.9
-5296.02
-5269.17
-5326.3
-6064.16
-5109.63
-4644.21
-4475.67
-3223.85
-3651.13
-1830.65
-3311.71
-2538.14
-3250.94
-4427.15
-3108.51
-5837.04
-2724.38
-6122.52
-1608.07
-4092.98
-450.796
2852.98
647.384
5879.42
1957.32
5231.56
2516.59
-679.749
1849.8
-5373.23
1287.01
-6501.15
1101.38
-4849.18
1118.02
-3332.42
-2263.4
-5159.73
-5217.54
-5162.26
-4893.94
-4395.91
-3869.32
-3421.94
-3024.68
-2617.89
-1815.32
-602.196
404.271
1233.55
1753.04
1619.31
1420.55
1249.35
1189.88
29.6161
-416.132
311.795
-1766.17
543.538
-1999.21
689.102
-1785.82
795.2
-1564.19
883.845
-1416.42
931.633
-1311.03
964.52
-1221.53
980.699
-1136.85
981.64
-1052.58
968.648
-970.887
941.916
-890.699
901.617
-812.625
846.886
-734.713
776.88
-656.788
688.829
-575.319
579.378
-487.872
440.295
-386.778
253.291
-246.956
-67.3996
148.404
-564.532
225.584
-1843.35
202.473
-1976.09
160.418
-1743.77
138.669
-1542.44
132.658
-1410.4
138.314
-1316.68
145.635
-1228.85
152.209
-1143.42
157.428
-1057.79
160.709
-974.164
161.226
-891.21
157.997
-809.393
149.887
-726.598
135.942
-642.84
114.547
-553.92
85.0063
-458.331
45.102
-346.873
2.19688
-204.049
-65.2026
24.5754
-589.102
71.2848
-1890.06
101.902
-2006.71
137.817
-1779.68
172.472
-1577.09
197.188
-1435.12
214.292
-1333.78
228.966
-1243.52
241.955
-1156.4
252.781
-1068.61
259.761
-981.141
262.111
-893.554
258.835
-806.114
249.651
-717.409
233.905
-627.09
211.245
-531.255
180.952
-428.037
141.38
-307.299
90.6938
-153.358
25.4913
-59.2944
-529.804
-82.2058
-1867.14
-31.599
-2057.31
26.2666
-1837.54
74.2594
-1625.08
113.458
-1474.31
147.479
-1367.8
177.851
-1273.89
203.961
-1182.51
224.832
-1089.48
238.93
-995.236
245.534
-900.155
244.115
-804.692
234.812
-708.103
217.584
-609.858
192.708
-506.377
160.076
-395.402
118.262
-265.48
68.8403
-103.928
94.3318
-8.32484
-521.474
-28.7877
-1846.68
28.2335
-2114.33
100.89
-1910.19
167.809
-1692
228.949
-1535.45
284.343
-1423.19
333.084
-1322.62
372.962
-1222.38
402.047
-1118.56
418.592
-1011.78
421.815
-903.374
411.472
-794.345
387.973
-684.601
351.731
-573.613
303.463
-458.106
243.837
-335.773
171.821
-193.46
86.9785
-19.0784
181.31
245.417
-766.888
330.065
-1931.32
366.018
-2150.28
408.76
-1952.93
472.463
-1755.7
548.832
-1611.81
627.234
-1501.59
697.608
-1393
754.299
-1279.07
793.532
-1157.79
813.411
-1031.66
812.673
-902.635
790.378
-772.049
745.671
-639.893
677.67
-505.611
584.921
-365.356
468.562
-219.413
328.989
-53.885
164.859
145.054
346.169
505.527
-1272.41
701.835
-2127.63
691.09
-2139.54
683.24
-1945.08
736.569
-1809.03
822.99
-1698.23
918.778
-1597.37
1003.19
-1477.41
1069.2
-1345.08
1112.96
-1201.54
1134.42
-1053.11
1132.09
-900.3
1103.36
-743.317
1043.92
-580.457
947.238
-408.929
796.661
-214.78
477.748
99.5009
294.812
129.053
147.744
292.123
493.913
473.009
-1745.42
544.263
-2198.88
435.809
-2031.08
375.48
-1884.75
381.716
-1815.26
411.239
-1727.75
440.302
-1626.44
448.819
-1485.92
434.283
-1330.55
396.239
-1163.5
337.309
-994.183
255.828
-818.819
149.765
-637.254
18.6639
-449.356
-126.214
-264.051
-235.124
-105.872
-84.7351
-50.8859
-148.064
192.383
-167.952
312.012
325.96
113.167
-1858.58
-44.6376
-2041.08
-215.104
-1860.61
-343.745
-1756.11
-455.132
-1703.87
-566.751
-1616.13
-684.399
-1508.78
-811.155
-1359.17
-945.961
-1195.74
-1087.25
-1022.21
-1233.28
-848.15
-1381.55
-670.545
-1525.04
-493.759
-1647.52
-326.883
-1723.49
-188.07
-1720.38
-108.987
-1662.97
-108.295
-1302.39
-168.196
-699.364
-291.014
-373.404
-185.796
-1672.79
-338.112
-1888.76
-479.673
-1719.05
-660.282
-1575.5
-863.449
-1500.71
-1084.17
-1395.41
-1305.34
-1287.62
-1518.42
-1146.09
-1720.95
-993.214
-1915.02
-828.134
-2099.85
-663.329
-2263.85
-506.548
-2381.81
-375.791
-2412.67
-296.028
-2309.26
-291.477
-2046.5
-371.75
-1619.61
-535.186
-1033.24
-754.572
-405.839
-918.411
-779.242
-129.903
-1542.89
-128.036
-1890.63
-146.907
-1700.18
-221.112
-1501.3
-312.571
-1409.25
-421.621
-1286.37
-523.549
-1185.69
-603.425
-1066.21
-648.81
-947.831
-654.864
-822.08
-621.125
-697.068
-548.381
-579.293
-440.526
-483.646
-305.095
-431.46
-151.429
-445.144
9.76507
-532.944
144.749
-670.171
195.941
-805.763
123.672
-846.142
-655.571
22.853
-1565.75
80.0481
-1947.83
138.21
-1758.35
181.316
-1544.41
222.59
-1450.53
260.158
-1323.94
300.947
-1226.48
354.829
-1120.1
430.336
-1023.34
536.941
-928.692
677.116
-837.247
845.958
-748.14
1024.7
-662.389
1178.06
-584.82
1256.88
-523.967
1215.37
-491.434
1035.01
-489.821
731.802
-502.552
365.344
-479.686
-290.227
110.139
-1675.89
152.749
-1990.44
201.592
-1807.19
260.549
-1603.37
328.748
-1518.73
397.609
-1392.8
468.878
-1297.75
540.008
-1191.23
610.143
-1093.48
678.648
-997.198
745.506
-904.106
810.631
-813.267
872.297
-724.057
923.564
-636.088
949.342
-549.748
922.726
-464.819
816.216
-383.313
611.626
-297.964
323.657
-191.721
33.4304
161.804
-1837.69
170.74
-1999.38
209.758
-1846.22
262.423
-1656.04
327.654
-1583.96
388.535
-1453.69
454.834
-1364.05
521.087
-1257.49
590.061
-1162.46
658.094
-1065.23
722.589
-968.604
778.056
-868.737
817.753
-763.757
833.334
-651.672
816.868
-533.284
759.493
-407.447
651.915
-275.736
482.071
-128.123
250.855
39.4889
284.286
155.303
-1993
130.703
-1974.78
165.914
-1881.43
213.591
-1703.71
272.163
-1642.54
331.284
-1512.81
398.637
-1431.41
471.426
-1330.28
553.516
-1244.55
642.711
-1154.43
736.108
-1062
823.272
-955.903
886.777
-827.265
903.921
-668.817
859.988
-489.353
760.849
-308.31
612.468
-127.358
401.434
82.9085
200.409
240.509
484.695
71.7458
-2064.75
23.4663
-1926.5
29.448
-1887.41
45.6005
-1719.87
66.1718
-1663.11
96.0798
-1542.72
132.171
-1467.5
177.905
-1376.02
232.71
-1299.36
295.452
-1217.18
360.613
-1127.17
413.628
-1008.92
428.997
-842.636
379.105
-618.929
270.687
-380.939
174.499
-212.13
130.017
-82.8834
76.145
136.773
-14.0865
330.735
470.608
-49.8674
-2014.88
-137.297
-1839.08
-199.185
-1825.53
-248.298
-1670.76
-297.163
-1614.25
-330.784
-1509.1
-361.826
-1436.46
-382.589
-1355.26
-397.927
-1284.02
-406.619
-1208.49
-412.255
-1121.53
-419.472
-1001.71
-434.244
-827.867
-455.036
-598.139
-471.193
-364.787
-476.683
-206.644
-474.427
-85.1438
-434.01
96.3514
-342.987
239.709
127.621
-184.459
-1830.42
-394.667
-1628.87
-569.069
-1651.12
-711.382
-1528.45
-844.272
-1481.36
-951.941
-1401.43
-1049.46
-1338.94
-1132.02
-1272.7
-1204.76
-1211.28
-1264.78
-1148.47
-1306.62
-1079.69
-1313.88
-994.449
-1259.26
-882.488
-1114.54
-742.855
-888.645
-590.682
-653.32
-441.97
-448.515
-289.95
-233.051
-119.115
-40.1727
46.827
87.4483
-192.002
-1638.42
-439.639
-1381.23
-700.62
-1390.14
-924.916
-1304.15
-1142.18
-1264.1
-1331.09
-1212.52
-1500.76
-1169.28
-1647.41
-1126.05
-1773.24
-1085.45
-1875.83
-1045.89
-1948.78
-1006.74
-1977.01
-966.226
-1937.5
-921.999
-1809.75
-870.601
-1591.46
-808.975
-1296.74
-736.693
-936.447
-650.24
-527.802
-527.761
-145.44
-335.537
-57.9914
-663.423
-1069.66
-1484.8
-1813.95
-2103.05
-2340.57
-2534.85
-2685.9
-2796.35
-2867.24
-2898.97
-2890.2
-2837.2
-2732.8
-2566.78
-2328.47
-2003.71
-1556.47
-917.009
-663.445
1638.45
-1069.69
1381.25
-1484.85
1390.16
-1814
1304.16
-2103.1
1264.1
-2340.61
1212.52
-2534.89
1169.27
-2685.93
1126.04
-2796.36
1085.44
-2867.23
1045.87
-2898.96
1006.72
-2890.17
966.215
-2837.16
921.995
-2732.77
870.607
-2566.77
809.001
-2328.52
736.748
-2003.85
650.33
-1556.72
527.875
-917.304
335.58
57.6964
-191.932
1830.38
-439.488
1628.8
-700.39
1651.06
-924.599
1528.37
-1141.78
1481.28
-1330.6
1401.34
-1500.17
1338.85
-1646.73
1272.6
-1772.47
1211.18
-1874.95
1148.36
-1947.8
1079.57
-1975.89
994.313
-1936.27
882.376
-1808.51
742.842
-1590.33
590.822
-1295.82
442.235
-935.755
290.269
-527.279
119.4
-144.99
-46.7077
-87.2935
-184.405
2014.79
-394.598
1839
-568.973
1825.44
-711.274
1670.67
-844.153
1614.16
-951.823
1509.01
-1049.35
1436.38
-1131.93
1355.18
-1204.68
1283.94
-1264.71
1208.39
-1306.53
1121.38
-1313.69
1001.47
-1258.86
827.548
-1113.88
597.864
-887.894
364.837
-652.617
206.96
-447.479
85.1317
-231.494
-96.5828
-38.782
-239.417
-126.075
-49.9758
2064.76
-137.457
1926.48
-199.431
1887.41
-248.647
1719.89
-297.628
1663.14
-331.377
1542.76
-362.568
1467.57
-383.497
1376.11
-399.025
1299.47
-407.929
1217.29
-413.795
1127.25
-421.231
1008.91
-436.139
842.457
-456.892
618.618
-472.845
380.791
-478.129
212.244
-475.746
82.7508
-435.316
-137.012
-344.127
-330.604
-470.203
71.5394
1993.22
23.1823
1974.84
29.0406
1881.55
45.0597
1703.87
65.4825
1642.72
95.248
1513
131.186
1431.63
176.767
1330.53
231.406
1244.83
293.966
1154.73
358.912
1062.31
411.667
956.156
426.738
827.387
376.621
668.737
268.336
489.079
172.662
307.921
128.63
126.787
74.9687
-83.3476
-14.8252
-240.808
-485.028
155.255
1837.97
130.564
1999.53
165.722
1846.39
213.348
1656.24
271.863
1584.2
330.94
1453.92
398.256
1364.31
471.02
1257.76
553.096
1162.75
642.286
1065.54
735.682
968.91
822.829
869.009
886.261
763.955
903.244
651.753
859.11
533.213
759.834
407.197
611.326
275.296
400.485
127.494
199.992
-40.3143
-285.036
161.975
1675.99
170.774
1990.73
209.718
1807.45
262.335
1603.63
327.539
1519
388.388
1393.07
454.664
1298.04
520.907
1191.52
589.897
1093.76
657.971
997.469
722.512
904.369
778.003
813.518
817.675
724.283
833.169
636.259
816.569
549.815
759.036
464.73
651.326
383.007
481.497
297.324
250.486
190.697
-34.5498
110.544
1565.45
153.086
1948.19
201.858
1758.68
260.804
1544.68
329.045
1450.76
397.904
1324.21
469.175
1226.77
540.262
1120.43
610.32
1023.7
678.7
929.089
745.43
837.64
810.445
748.502
872.05
662.679
923.269
585.039
948.933
524.151
922.16
491.503
815.569
489.598
611.064
501.83
323.284
478.478
288.734
23.1969
1542.25
80.3362
1891.05
138.534
1700.48
181.836
1501.38
223.381
1409.21
261.289
1286.31
302.429
1185.63
356.645
1066.22
432.501
947.849
539.513
822.077
680.036
697.118
848.932
579.607
1027.39
484.216
1180.34
432.092
1258.71
445.784
1216.72
533.499
1036.02
670.291
732.572
805.281
365.823
845.227
654.557
-129.229
1671.48
-126.781
1888.6
-144.978
1718.68
-218.443
1574.84
-309.136
1499.9
-417.331
1394.5
-518.369
1286.66
-597.305
1145.15
-641.628
992.172
-646.466
826.916
-611.579
662.231
-538.076
506.103
-430.022
376.162
-294.829
296.898
-141.585
292.54
18.8509
373.062
152.143
536.998
200.655
756.768
125.588
920.294
780.145
-186.577
1858.06
-338.477
2040.5
-479.777
1859.98
-660.5
1755.57
-863.873
1703.28
-1084.81
1615.44
-1306.09
1507.95
-1519.18
1358.24
-1721.62
1194.61
-1915.54
1020.84
-2100.04
846.722
-2263.4
669.462
-2380.55
493.315
-2410.62
326.968
-2306.59
188.516
-2043.49
109.953
-1616.31
109.824
-1030.06
170.521
-404.141
294.371
376.003
111.583
1746.48
-46.6329
2198.72
-217.255
2030.6
-346.302
1884.61
-458.339
1815.31
-570.733
1727.83
-689.17
1626.39
-816.665
1485.73
-952.227
1330.18
-1094.33
1162.94
-1241.09
993.481
-1389.72
818.089
-1533.11
636.707
-1655.19
449.042
-1730.74
264.07
-1726.49
105.7
-1665.53
48.8594
-1303.68
-191.324
-699.069
-310.241
-323.066
472.375
1274.1
542.919
2128.17
433.905
2139.61
373.089
1945.43
378.73
1809.67
407.554
1699.01
435.827
1598.11
443.547
1478.01
428.209
1345.51
389.373
1201.78
329.72
1053.13
247.758
900.051
141.683
742.781
11.1431
579.582
-132.209
407.419
-238.376
211.857
-93.1819
-96.3445
-154.539
-129.969
-171.457
-293.325
-494.523
506.622
767.478
703.419
1931.38
692.397
2150.63
684.222
1953.6
737.394
1756.5
823.743
1612.66
919.461
1502.4
1003.76
1393.71
1069.61
1279.66
1113.16
1158.23
1134.36
1031.94
1131.68
902.733
1102.51
771.946
1042.5
639.588
944.814
505.11
792.022
364.648
476.886
218.791
294.07
52.8456
147.023
-146.279
-347.5
246.89
520.587
332.145
1846.12
367.997
2114.78
410.601
1911
474.329
1692.77
550.84
1536.14
629.423
1423.81
699.953
1323.18
756.749
1222.86
796.037
1118.94
815.926
1012.05
815.136
903.523
792.717
794.365
747.821
684.484
679.562
573.368
586.464
457.746
469.958
335.296
330.031
192.772
165.459
18.292
-182.041
-7.82313
528.41
-28.2778
1866.57
28.745
2057.76
101.508
1838.23
168.602
1625.68
229.956
1474.79
285.571
1368.2
334.501
1274.25
374.525
1182.84
403.707
1089.76
420.308
995.445
423.544
900.286
413.171
804.737
389.595
708.058
353.234
609.729
304.807
506.172
244.998
395.104
172.694
265.075
87.4716
103.512
-94.5694
-59.5368
587.946
-82.6724
1889.71
-31.919
2007.01
26.1768
1780.14
74.3899
1577.46
113.8
1435.38
148.018
1333.98
178.558
1243.71
204.799
1156.6
225.761
1068.79
239.911
981.295
246.531
893.666
245.094
806.173
235.741
717.412
218.431
627.038
193.449
531.152
160.676
427.877
118.655
307.094
69.0328
153.133
-25.5366
24.4925
563.453
71.1513
1843.05
101.944
1976.21
138.059
1744.02
172.902
1542.62
197.779
1410.5
215.014
1316.74
229.783
1228.94
242.841
1143.54
253.705
1057.93
260.698
974.301
263.03
891.333
259.714
809.488
250.466
726.66
234.64
642.864
211.885
553.907
181.48
458.281
141.751
346.822
90.8153
204.068
65.2786
148.944
414.508
226.426
1765.57
203.403
1999.24
161.294
1786.13
139.486
1564.43
133.46
1416.53
139.151
1311.05
146.531
1221.56
153.166
1136.9
158.431
1052.66
161.736
970.996
162.243
890.826
158.971
812.76
150.782
734.849
136.732
656.913
115.208
575.431
85.5274
487.962
45.4733
386.876
2.39883
247.141
67.6774
29.9221
313.172
545.665
691.648
797.953
886.654
934.477
967.179
983.129
983.783
970.473
943.416
902.823
847.831
777.605
689.356
579.728
440.489
253.381
)
;

boundaryField
{
    outletWall
    {
        type            calculated;
        value           nonuniform List<scalar> 
60
(
536.134
-1521.78
-2427.71
-3598.45
-5046.43
-4606.16
-2192.9
2485.54
2816.15
-1381.86
-4942.13
-5792.55
-4970.2
-3194.63
-579.502
-746.437
-3009.53
-4583.9
-5970.93
-5203.17
5089.8
5192.64
5349.37
5585.74
5990.04
6674.38
7746.3
9338.37
11551.4
13698.6
13656
11522.4
9307.93
7724.91
6657.33
5976.98
5573.4
5334.03
5173.05
5067.5
254.924
-2432.95
-3272.95
-4677.98
-6302.39
-5239.5
-1199.24
4402.29
4872.95
1639.86
-4895.55
-6529.3
-6234.3
-4874.53
-3064.73
-2328.68
-3492.17
-4699.49
-6006.35
-5199.24
)
;
    }
    fineWalls
    {
        type            calculated;
        value           uniform 0;
    }
    fineFrontAndBack
    {
        type            calculated;
        value           nonuniform List<scalar> 
960
(
-7.56427e-14
-2.46484e-13
-3.48215e-14
-1.03235e-14
1.05178e-13
3.15701e-14
4.84317e-14
-1.85377e-14
2.24268e-13
1.34519e-13
2.69175e-13
-3.57732e-13
-5.2322e-13
-4.97161e-13
-4.22979e-12
-1.22737e-12
-1.20096e-12
-5.13565e-12
-7.26398e-13
-7.86196e-13
-6.4276e-14
-1.62511e-13
-1.88968e-13
-1.97939e-13
-1.8756e-13
-2.20525e-13
-2.54006e-12
-2.49258e-13
-2.5624e-13
-2.69043e-13
-2.9375e-13
-3.32085e-13
-3.73072e-13
-4.28312e-13
-4.91989e-13
-5.61124e-13
-6.13568e-13
-7.09397e-13
-7.25444e-13
-1.17675e-12
-1.98202e-11
-2.09372e-12
-1.94459e-12
-2.62417e-12
2.00288e-11
4.82284e-11
6.90601e-11
9.64442e-11
5.5718e-10
7.57677e-11
2.23563e-11
-6.75023e-11
-1.81323e-12
1.47342e-11
1.75081e-11
1.55193e-11
2.08314e-12
2.03471e-12
2.27997e-12
2.29114e-11
1.30445e-12
9.03614e-13
8.49049e-13
7.43719e-13
6.64434e-13
5.91477e-13
5.30168e-13
4.80209e-13
4.29346e-13
3.88915e-13
3.61821e-13
3.44908e-13
3.31493e-13
4.15155e-12
2.66383e-13
2.0739e-13
1.85786e-13
1.53133e-13
9.48714e-14
-6.08969e-14
-2.21348e-13
-4.28958e-13
-2.94682e-12
-8.00098e-13
-7.2885e-13
-3.23179e-12
-4.18286e-13
-3.89377e-13
-1.27707e-12
-1.14473e-13
-2.09097e-13
-6.48953e-13
-3.68501e-14
-2.1011e-14
3.42187e-14
2.65962e-13
-4.60879e-15
-1.06622e-13
-7.54915e-13
-1.94938e-13
-2.11891e-12
-2.33863e-12
-2.92535e-12
-3.70069e-12
-4.57776e-12
-4.61863e-12
-4.82552e-12
-3.94007e-12
-3.6355e-12
-3.42033e-12
-2.75916e-12
-1.85091e-12
-1.48823e-12
-1.48501e-12
-1.0355e-12
-5.26965e-13
-4.46678e-13
1.45451e-13
-3.72488e-13
-2.15165e-12
-2.54048e-12
-3.23102e-12
-2.98774e-12
3.445e-12
1.295e-11
-5.4164e-12
-6.93066e-12
-3.64354e-12
-2.92803e-12
-2.47688e-12
-1.4365e-12
-5.46667e-14
-5.42978e-13
-1.11992e-12
-6.83742e-13
-4.56665e-13
1.1658e-13
-4.00466e-13
-2.02336e-12
-3.05018e-12
-3.60291e-12
6.00291e-13
1.89519e-11
4.10445e-11
1.65734e-11
-4.90436e-12
-5.86936e-12
-2.81133e-12
-1.62276e-12
2.36825e-14
4.45618e-12
4.18346e-12
-2.13073e-14
-1.08225e-12
-7.44619e-13
-2.71991e-14
-1.14587e-13
-1.34616e-12
-3.91872e-12
-2.84235e-12
1.02909e-11
3.67021e-11
6.1207e-11
5.12177e-11
1.34521e-11
-3.89874e-12
-4.85724e-12
-1.69359e-12
4.5761e-12
1.30442e-11
1.38791e-11
5.08212e-12
-9.53591e-14
-1.37656e-12
-8.96735e-13
-3.21115e-13
3.09683e-13
-4.68192e-12
9.53476e-13
2.59452e-11
5.50965e-11
7.4665e-11
7.20043e-11
4.14162e-11
1.0631e-11
-3.64609e-12
1.57147e-12
1.43663e-11
2.27511e-11
2.3258e-11
1.38738e-11
5.08633e-12
3.37297e-13
-1.10534e-12
-1.72678e-13
2.89098e-12
-4.39314e-12
8.43975e-12
4.23824e-11
6.83931e-11
7.87671e-11
7.58262e-11
6.18956e-11
3.35626e-11
7.07641e-12
1.33631e-11
2.51824e-11
2.63776e-11
2.20454e-11
2.01017e-11
1.15533e-11
5.16819e-12
2.37143e-12
3.49731e-12
5.65454e-12
-1.95485e-12
1.82192e-11
5.46271e-11
7.31449e-11
7.46635e-11
6.98203e-11
6.57314e-11
5.16961e-11
2.58112e-11
2.71361e-11
2.84304e-11
2.35155e-11
2.00128e-11
1.96541e-11
1.56089e-11
9.91313e-12
9.17238e-12
9.82884e-15
6.47038e-12
2.34009e-12
2.73771e-11
5.90501e-11
6.79951e-11
6.43685e-11
6.04109e-11
5.98268e-11
5.6605e-11
4.2534e-11
3.20626e-11
2.59849e-11
2.23986e-11
2.02661e-11
1.74335e-11
1.62459e-11
1.64917e-11
2.18668e-11
2.73482e-11
4.86133e-12
9.20143e-12
3.52187e-11
5.31385e-11
5.27004e-11
4.9391e-11
4.74177e-11
4.56758e-11
4.54174e-11
3.96062e-11
2.69115e-11
2.2741e-11
2.3967e-11
2.22755e-11
2.11997e-11
2.13053e-11
2.04851e-11
1.82012e-11
1.78962e-11
1.71671e-11
1.97218e-11
2.95008e-11
3.23462e-11
3.2054e-11
3.0755e-11
2.23517e-11
5.47416e-12
-3.00186e-12
-2.08903e-12
3.09495e-12
1.13096e-11
1.89266e-11
1.30206e-11
9.39855e-12
1.04063e-11
3.33252e-11
3.73939e-11
-6.48923e-12
-9.77817e-12
4.85586e-12
1.37577e-11
2.2865e-11
1.76297e-11
-4.51571e-12
-3.50908e-11
-5.35425e-11
-5.66935e-11
-4.77378e-11
-3.25409e-11
-2.19233e-11
-2.39122e-11
-3.64143e-11
-5.14845e-11
-6.26625e-11
-6.01766e-11
-1.43581e-11
2.076e-10
-6.36757e-12
-2.4589e-12
-7.55109e-12
-2.46738e-12
-1.30771e-13
-1.4756e-11
-4.08325e-11
-5.41408e-11
-5.04417e-11
-4.08532e-11
-3.86301e-11
-3.7469e-11
-3.82682e-11
-3.94623e-11
-3.54519e-11
-2.85239e-11
-2.95838e-11
-3.48457e-11
-3.02078e-11
-8.50291e-12
-9.41719e-13
-1.02718e-11
-1.82601e-11
-1.85068e-11
-2.4632e-11
-4.18756e-11
-4.9566e-11
-3.98563e-11
-2.51474e-11
-3.72008e-11
-4.22418e-11
-4.02046e-11
-3.4654e-11
-2.58821e-11
-2.11655e-11
-1.68199e-11
-1.55894e-11
-2.07086e-11
-8.58998e-12
1.11162e-12
-7.97765e-12
-2.42568e-11
-3.1371e-11
-3.58304e-11
-4.5167e-11
-4.16195e-11
-2.28852e-11
-8.0194e-12
-2.81237e-11
-4.14911e-11
-4.09331e-11
-3.383e-11
-2.88686e-11
-2.46784e-11
-1.43512e-11
-1.08061e-11
3.53988e-12
-6.54702e-12
2.61882e-12
-3.23825e-12
-2.20016e-11
-3.66904e-11
-4.43795e-11
-4.31503e-11
-2.41439e-11
-4.18943e-12
2.56678e-12
-1.49298e-11
-3.40891e-11
-4.14213e-11
-3.73098e-11
-3.26038e-11
-1.9122e-11
-6.91896e-12
-2.02876e-12
1.36173e-12
-4.45917e-12
2.4611e-12
6.53719e-13
-1.40956e-11
-3.40466e-11
-4.4559e-11
-2.38334e-11
-2.94113e-12
6.5691e-12
5.06194e-12
-4.58622e-12
-2.11934e-11
-3.57937e-11
-3.87423e-11
-2.81858e-11
-1.12135e-11
-1.07032e-12
1.72946e-12
4.53808e-12
-3.04536e-12
1.33619e-12
2.20184e-12
-3.46339e-12
-2.18933e-11
-2.32928e-11
1.10397e-12
8.03851e-12
6.36044e-12
3.37204e-12
-4.41786e-14
-8.85319e-12
-2.20896e-11
-2.85319e-11
-1.4511e-11
-2.47589e-12
1.98626e-12
1.85547e-12
9.92337e-13
-2.56663e-12
5.55912e-14
1.6091e-12
3.31982e-12
3.76069e-12
7.02352e-12
8.6965e-12
6.08901e-12
4.18993e-12
3.47243e-12
1.79403e-12
-1.59231e-12
-8.94065e-12
-1.33803e-11
-3.30341e-12
1.48154e-12
1.62203e-12
7.90583e-13
3.17623e-14
-2.72761e-12
-7.85131e-13
9.52663e-13
2.71584e-12
4.28145e-12
4.84902e-12
4.60146e-12
4.61249e-12
4.71585e-12
4.23483e-12
2.82696e-12
1.3755e-12
-1.29256e-12
-2.92192e-12
1.21736e-12
1.79592e-12
1.07036e-12
5.43822e-13
9.11396e-14
-3.06861e-12
-1.36239e-12
3.69815e-13
2.03875e-12
3.71029e-12
4.84387e-12
5.32688e-12
5.38448e-12
5.04298e-12
4.35697e-12
3.2703e-12
2.39024e-12
1.78922e-12
1.56902e-12
2.05423e-12
1.54746e-12
9.27208e-13
4.99547e-13
7.22941e-14
7.56427e-14
2.46484e-13
3.48215e-14
1.03235e-14
-1.05178e-13
-3.15701e-14
-4.84317e-14
1.85377e-14
-2.24268e-13
-1.34519e-13
-2.69175e-13
3.57732e-13
5.2322e-13
4.97161e-13
4.22979e-12
1.22737e-12
1.20096e-12
5.13565e-12
7.26398e-13
7.86196e-13
6.4276e-14
1.62511e-13
1.88968e-13
1.97939e-13
1.8756e-13
2.20525e-13
2.54006e-12
2.49258e-13
2.5624e-13
2.69043e-13
2.9375e-13
3.32085e-13
3.73072e-13
4.28312e-13
4.91989e-13
5.61124e-13
6.13568e-13
7.09397e-13
7.25444e-13
1.17675e-12
1.98202e-11
2.09372e-12
1.94459e-12
2.62417e-12
-2.00288e-11
-4.82284e-11
-6.90601e-11
-9.64442e-11
-5.5718e-10
-7.57677e-11
-2.23563e-11
6.75023e-11
1.81323e-12
-1.47342e-11
-1.75081e-11
-1.55193e-11
-2.08314e-12
-2.03471e-12
-2.27997e-12
-2.29114e-11
-1.30445e-12
-9.03614e-13
-8.49049e-13
-7.43719e-13
-6.64434e-13
-5.91477e-13
-5.30168e-13
-4.80209e-13
-4.29346e-13
-3.88915e-13
-3.61821e-13
-3.44908e-13
-3.31493e-13
-4.15155e-12
-2.66383e-13
-2.0739e-13
-1.85786e-13
-1.53133e-13
-9.48714e-14
6.08969e-14
2.21348e-13
4.28958e-13
2.94682e-12
8.00098e-13
7.2885e-13
3.23179e-12
4.18286e-13
3.89377e-13
1.27707e-12
1.14473e-13
2.09097e-13
6.48953e-13
3.68501e-14
2.1011e-14
-3.42187e-14
-2.65962e-13
4.60879e-15
1.06622e-13
7.54915e-13
1.94938e-13
2.11891e-12
2.33863e-12
2.92535e-12
3.70069e-12
4.57776e-12
4.61863e-12
4.82552e-12
3.94007e-12
3.6355e-12
3.42033e-12
2.75916e-12
1.85091e-12
1.48823e-12
1.48501e-12
1.0355e-12
5.26965e-13
4.46678e-13
-1.45451e-13
3.72488e-13
2.15165e-12
2.54048e-12
3.23102e-12
2.98774e-12
-3.445e-12
-1.295e-11
5.4164e-12
6.93066e-12
3.64354e-12
2.92803e-12
2.47688e-12
1.4365e-12
5.46667e-14
5.42978e-13
1.11992e-12
6.83742e-13
4.56665e-13
-1.1658e-13
4.00466e-13
2.02336e-12
3.05018e-12
3.60291e-12
-6.00291e-13
-1.89519e-11
-4.10445e-11
-1.65734e-11
4.90436e-12
5.86936e-12
2.81133e-12
1.62276e-12
-2.36825e-14
-4.45618e-12
-4.18346e-12
2.13073e-14
1.08225e-12
7.44619e-13
2.71991e-14
1.14587e-13
1.34616e-12
3.91872e-12
2.84235e-12
-1.02909e-11
-3.67021e-11
-6.1207e-11
-5.12177e-11
-1.34521e-11
3.89874e-12
4.85724e-12
1.69359e-12
-4.5761e-12
-1.30442e-11
-1.38791e-11
-5.08212e-12
9.53591e-14
1.37656e-12
8.96735e-13
3.21115e-13
-3.09683e-13
4.68192e-12
-9.53476e-13
-2.59452e-11
-5.50965e-11
-7.4665e-11
-7.20043e-11
-4.14162e-11
-1.0631e-11
3.64609e-12
-1.57147e-12
-1.43663e-11
-2.27511e-11
-2.3258e-11
-1.38738e-11
-5.08633e-12
-3.37297e-13
1.10534e-12
1.72678e-13
-2.89098e-12
4.39314e-12
-8.43975e-12
-4.23824e-11
-6.83931e-11
-7.87671e-11
-7.58262e-11
-6.18956e-11
-3.35626e-11
-7.07641e-12
-1.33631e-11
-2.51824e-11