/*--------------------------------*- C++ -*----------------------------------*\
| =========                 |                                                 |
| \\      /  F ield         | OpenFOAM: The Open Source CFD Toolbox           |
|  \\    /   O peration     | Version:  4.1                                   |
|   \\  /    A nd           | Web:      www.OpenFOAM.org                      |
|    \\/     M anipulation  |                                                 |
\*---------------------------------------------------------------------------*/
FoamFile
{
    version     2.0;
    format      ascii;
    class       volVectorField;
    location    "7";
    object      U;
}
// * * * * * * * * * * * * * * * * * * * * * * * * * * * * * * * * * * * * * //

dimensions      [0 1 -1 0 0 0 0];

internalField   nonuniform List<vector> 
1280
(
(-5.4665e-17 -0.05437 -1.23901)
(-4.52981e-17 0.284966 -1.21812)
(-2.51646e-17 0.274087 -0.729823)
(-7.46054e-18 0.378532 -0.605436)
(1.78759e-17 0.665781 -1.01256)
(2.26646e-17 0.635818 -0.770578)
(3.50004e-17 0.806861 -0.774123)
(-1.82175e-17 0.862118 -0.714466)
(6.57625e-17 1.18422 -1.18575)
(1.03358e-16 1.15179 -0.933734)
(2.06815e-16 1.31852 -0.813799)
(-1.20452e-16 1.72738 -1.40925)
(-3.78118e-16 1.63965 -1.14017)
(-3.59285e-16 1.86949 -0.992799)
(-8.12297e-16 2.36369 -1.93408)
(-8.86989e-16 2.38566 -1.61821)
(-8.67899e-16 2.64223 -1.38068)
(-8.72853e-16 3.69041 -3.1101)
(-5.24949e-16 3.35986 -2.545)
(-5.68164e-16 4.26611 -2.70994)
(-2.63696e-16 3.73062 -2.50658)
(-6.66712e-16 4.15258 3.68467)
(-7.75252e-16 3.77112 8.07167)
(-8.12056e-16 4.00291 9.96889)
(-7.69475e-16 4.18992 10.5891)
(-9.0472e-16 4.61771 11.0602)
(-5.35454e-16 3.35741 8.35951)
(-1.0226e-15 7.86592 13.7957)
(-1.05124e-15 7.92471 13.9116)
(-1.10377e-15 7.98759 13.868)
(-1.20513e-15 8.02268 13.7574)
(-1.3624e-15 8.02775 13.6061)
(-1.53055e-15 8.01583 13.4254)
(-1.75718e-15 7.98953 13.2167)
(-2.01842e-15 7.95468 12.9915)
(-2.30205e-15 7.89626 12.7572)
(-2.5172e-15 7.85621 12.537)
(-2.91035e-15 7.73974 12.3146)
(-2.97618e-15 7.74276 12.145)
(-4.82771e-15 7.45987 11.7132)
(-3.45e-15 9.04791 13.593)
(-1.6817e-15 5.22094 9.81164)
(-1.56192e-15 4.0151 9.66438)
(-2.07613e-15 3.05497 9.89622)
(3.73627e-15 0.853786 7.79862)
(3.87376e-14 -0.0713351 -4.10106)
(5.547e-14 -0.108374 -2.83288)
(7.74652e-14 0.293399 -3.47795)
(1.15307e-13 1.23785 -4.74431)
(6.08576e-14 0.399981 -4.80907)
(1.79568e-14 -0.437665 -5.45471)
(-1.17498e-14 -1.36371 -4.8075)
(-1.45641e-15 -0.276521 -3.35318)
(1.18347e-14 0.105934 -2.76383)
(1.40628e-14 0.195808 -4.04055)
(2.70136e-15 -0.830557 7.77312)
(1.70498e-15 -3.03769 9.89897)
(1.6343e-15 -3.99573 9.66449)
(1.8313e-15 -5.20107 9.81183)
(3.87483e-15 -9.03802 13.5972)
(5.35157e-15 -7.46147 11.7134)
(3.70714e-15 -7.7435 12.1459)
(3.48328e-15 -7.74058 12.317)
(3.05115e-15 -7.85693 12.5411)
(2.72588e-15 -7.89698 12.7641)
(2.42657e-15 -7.95554 13.002)
(2.17505e-15 -7.99067 13.2315)
(1.97009e-15 -8.01747 13.4447)
(1.76142e-15 -8.02996 13.6285)
(1.59555e-15 -8.02526 13.7804)
(1.48439e-15 -7.9902 13.8884)
(1.41501e-15 -7.92747 13.9268)
(1.35997e-15 -7.8669 13.806)
(8.75162e-16 -3.33909 8.34748)
(1.09285e-15 -4.60686 11.0444)
(8.5083e-16 -4.17885 10.5586)
(7.622e-16 -3.9941 9.9228)
(6.2824e-16 -3.76411 8.0032)
(3.89216e-16 -4.14675 3.59018)
(-2.49833e-16 -3.72446 -2.62086)
(-1.59963e-16 -4.25573 -2.82042)
(-3.09996e-16 -3.33518 -2.66424)
(-5.0084e-16 -3.58402 -3.26313)
(-5.7821e-16 -2.54897 -1.43266)
(-5.26721e-16 -2.28074 -1.70206)
(-6.46478e-16 -2.16121 -2.04677)
(-3.21296e-16 -1.68858 -1.00307)
(-2.81393e-16 -1.45762 -1.16336)
(-2.55074e-16 -1.47727 -1.42397)
(-8.64018e-17 -1.11688 -0.805847)
(-1.51109e-16 -0.952668 -0.919592)
(-1.39759e-16 -0.939308 -1.16157)
(-2.90192e-17 -0.682537 -0.718689)
(-1.51841e-17 -0.606481 -0.770335)
(2.47289e-17 -0.460629 -0.748245)
(4.52027e-17 -0.439995 -0.925858)
(-3.33065e-18 -0.226612 -0.490893)
(-6.87088e-17 -0.136706 -0.585838)
(-1.38482e-16 -0.165023 -1.03044)
(-1.40876e-16 0.152642 -1.14436)
(-2.35435e-16 -1.73309 4.22921)
(-2.59848e-16 -2.0095 4.32842)
(-3.25039e-16 -1.55445 4.35703)
(-4.11187e-16 -1.035 4.22934)
(-5.0864e-16 -0.263584 3.58689)
(-5.13181e-16 -0.191163 2.46012)
(-5.36169e-16 -1.00421 2.31335)
(-4.37785e-16 -1.61393 2.23898)
(-4.03945e-16 -1.92076 2.03612)
(-3.80037e-16 -1.66342 1.7551)
(-3.06574e-16 -0.531662 1.23772)
(-2.05657e-16 1.02172 -0.0554691)
(-1.65359e-16 0.836487 -0.702102)
(-1.65001e-16 -0.726682 -1.16144)
(-1.15055e-16 -1.50543 -1.05237)
(-5.85516e-17 -1.66841 -0.881458)
(-4.96309e-17 -1.20864 -0.833899)
(1.61612e-17 -0.817251 -0.814807)
(-4.13875e-17 -0.503451 -0.916598)
(-2.39072e-16 -1.78135 4.32283)
(-2.82276e-16 -2.00576 4.46859)
(-3.59002e-16 -1.44792 4.42312)
(-3.31971e-16 -0.63138 3.85643)
(3.82778e-16 0.467439 1.97483)
(1.43889e-15 0.128898 0.0638696)
(-6.01822e-16 -1.2183 1.01801)
(-7.70074e-16 -1.64102 2.24714)
(-4.04838e-16 -1.76879 2.31698)
(-3.25337e-16 -1.348 1.92016)
(-2.75209e-16 0.352497 0.84182)
(-1.59611e-16 1.49501 -0.371877)
(-6.07407e-18 1.26428 -1.14883)
(-6.03309e-17 -0.611798 -1.85605)
(-1.24435e-16 -1.72727 -1.42766)
(-7.59713e-17 -1.79486 -0.861561)
(-5.07405e-17 -1.20149 -0.69003)
(1.29534e-17 -0.775734 -0.739865)
(-4.44962e-17 -0.450734 -0.903005)
(-2.24818e-16 -1.81478 4.45025)
(-3.38909e-16 -2.03997 4.65822)
(-4.00323e-16 -1.31408 4.51059)
(6.66991e-17 -0.0683572 3.45705)
(2.10577e-15 1.2092 1.68612)
(4.5605e-15 0.620878 0.522283)
(1.84149e-15 -1.60888 -0.59324)
(-5.44929e-16 -2.1281 1.26666)
(-6.52151e-16 -1.75398 2.47612)
(-3.12369e-16 -1.0652 2.28613)
(-1.80306e-16 0.785344 0.960139)
(2.63138e-18 1.80126 -0.226733)
(4.95132e-16 1.57744 -1.48333)
(4.64828e-16 -0.667393 -2.43528)
(-2.36747e-18 -1.90855 -1.99698)
(-1.2025e-16 -1.9403 -1.11074)
(-8.27354e-17 -1.22699 -0.687382)
(-3.02212e-18 -0.727901 -0.724828)
(-1.27318e-17 -0.335499 -0.96438)
(-1.49574e-16 -1.86612 4.64321)
(-4.35413e-16 -2.04348 4.86545)
(-3.15817e-16 -1.01657 4.59776)
(1.14343e-15 0.555193 3.30407)
(4.07801e-15 1.65117 2.3196)
(6.80078e-15 1.13506 1.72164)
(5.69085e-15 -1.64165 -0.491178)
(1.49468e-15 -2.79819 -0.149646)
(-4.33193e-16 -2.16699 1.84889)
(-5.39693e-16 -0.831664 2.56864)
(-1.88176e-16 1.3472 1.3318)
(5.08456e-16 2.4376 -0.357647)
(1.44935e-15 2.1903 -1.79268)
(1.54212e-15 -0.417426 -2.82246)
(5.6468e-16 -2.29645 -2.52548)
(-1.05955e-17 -2.2684 -1.5718)
(-1.52951e-16 -1.31737 -0.937008)
(-9.96372e-17 -0.729374 -0.833494)
(-3.56794e-17 -0.342933 -1.3455)
(3.44093e-17 -1.90289 4.9693)
(-5.20213e-16 -2.02552 5.06322)
(1.05942e-16 -0.697658 4.74708)
(2.8828e-15 0.894145 3.74559)
(6.12183e-15 1.86683 3.4904)
(8.29612e-15 1.60403 3.28505)
(8.00048e-15 -1.20113 1.05095)
(4.60179e-15 -3.037 -0.589331)
(1.18123e-15 -2.79861 0.758207)
(-4.05122e-16 -0.852701 2.19713)
(1.74608e-16 1.91669 1.06353)
(1.59626e-15 3.09555 -0.510735)
(2.5279e-15 2.7009 -1.10772)
(2.58422e-15 -0.211512 -1.93839)
(1.54154e-15 -2.30575 -2.36006)
(5.65148e-16 -2.53452 -1.80855)
(3.74775e-17 -1.48721 -1.4261)
(-1.22816e-16 -0.533649 -1.41768)
(-1.91865e-17 0.0507507 -2.43875)
(3.21219e-16 -1.891 5.52091)
(-4.88127e-16 -1.97585 5.28551)
(9.3775e-16 -0.469975 5.02244)
(4.70916e-15 0.998796 4.54718)
(7.59923e-15 1.89476 4.80032)
(8.7519e-15 1.96637 4.99003)
(8.42513e-15 -0.124739 3.528)
(6.87728e-15 -2.69346 0.551585)
(3.72918e-15 -3.22637 0.225725)
(7.86268e-16 -1.01172 1.42546)
(1.48479e-15 2.34462 0.663868)
(2.79804e-15 3.34943 0.489913)
(2.93085e-15 2.67183 1.5002)
(2.44949e-15 -0.718802 0.989009)
(2.23352e-15 -2.23682 -1.11312)
(1.2837e-15 -2.48241 -1.04004)
(5.74243e-16 -1.51242 -1.29575)
(2.63493e-16 -0.724988 -1.65148)
(3.8859e-16 -0.223019 -3.82558)
(6.28283e-16 -1.77305 6.39084)
(-2.17205e-16 -1.85853 5.63336)
(2.02435e-15 -0.357194 5.42668)
(6.06968e-15 0.937846 5.40328)
(8.12721e-15 1.74808 6.01244)
(8.29595e-15 2.0711 6.64193)
(7.75781e-15 0.784676 6.24895)
(7.30349e-15 -1.83868 3.26309)
(5.74401e-15 -3.02112 1.10912)
(2.86791e-15 -1.07459 0.996365)
(3.01512e-15 2.18053 1.26641)
(3.15893e-15 2.85137 3.23808)
(2.61283e-15 2.39369 5.12539)
(2.22364e-15 0.384577 4.54084)
(2.18379e-15 -1.95779 1.49398)
(1.73432e-15 -2.40303 0.493132)
(1.10146e-15 -0.986988 -0.446271)
(1.01915e-15 1.26204 -2.93369)
(1.09209e-18 1.24212 -0.813622)
(7.18932e-16 -1.53202 7.686)
(2.6001e-16 -1.63425 6.20344)
(3.0419e-15 -0.33864 5.93525)
(6.56112e-15 0.732753 6.18609)
(7.55501e-15 1.43859 7.09528)
(7.15206e-15 1.85383 8.30455)
(6.71233e-15 1.19635 9.15884)
(6.64743e-15 -0.881623 7.2796)
(6.28944e-15 -2.26758 3.75881)
(4.72601e-15 -0.983487 1.74303)
(3.56252e-15 1.34431 3.52279)
(2.88722e-15 1.87995 6.74816)
(2.48874e-15 2.10615 8.797)
(2.25179e-15 1.35396 9.06075)
(1.93706e-15 -0.481466 6.22458)
(1.8051e-15 -1.41264 3.41087)
(1.83241e-15 -0.441248 2.77629)
(2.42964e-15 -1.33829 5.27482)
(3.03868e-15 -5.75054 9.88262)
(5.40148e-16 -1.08839 9.50837)
(1.02238e-15 -1.2145 7.16778)
(3.91319e-15 -0.305742 6.58134)
(5.90427e-15 0.455063 6.84165)
(5.8556e-15 0.939585 8.09168)
(5.48789e-15 1.26085 10.0443)
(5.26863e-15 1.16233 12.136)
(5.07509e-15 0.317277 11.9753)
(5.04638e-15 -0.708924 8.51075)
(4.40069e-15 -0.703852 5.43711)
(2.99016e-15 0.217991 6.62329)
(2.52678e-15 0.873844 9.15938)
(2.663e-15 1.40396 11.2518)
(2.47505e-15 1.12061 13.3998)
(2.35552e-15 -0.0198074 13.9066)
(2.36726e-15 -0.906634 12.426)
(2.27612e-15 -1.08396 11.824)
(2.02236e-15 -1.64073 12.2627)
(1.98847e-15 -3.07412 12.085)
(1.90745e-15 -0.483325 11.2634)
(2.19131e-15 -0.533587 7.8491)
(3.27787e-15 -0.165775 6.82655)
(3.59402e-15 0.0883211 7.16103)
(3.56155e-15 0.186336 8.89236)
(3.41722e-15 0.236705 11.5049)
(2.64696e-15 0.352467 14.4446)
(6.0824e-16 0.418657 15.736)
(-3.3354e-16 0.308719 13.8493)
(-2.32115e-16 -0.0197505 10.1099)
(3.43884e-16 -0.132915 7.90547)
(9.9245e-16 0.119753 8.409)
(2.10296e-15 0.460965 10.6051)
(1.44673e-15 0.362275 13.5683)
(1.36822e-15 -0.123099 15.2819)
(1.15626e-15 -0.588194 14.7476)
(3.7028e-15 -0.848421 12.7075)
(4.15487e-15 -1.48557 9.86175)
(-7.21025e-16 -2.75483 6.07385)
(-1.08646e-15 0.448909 11.2988)
(5.3954e-16 0.466751 7.8675)
(1.52863e-15 0.0151528 6.79704)
(2.54055e-15 -0.40438 7.00089)
(1.95886e-15 -0.742338 8.52999)
(-5.01746e-16 -0.898747 10.8483)
(-4.07824e-15 -0.445758 13.1093)
(-5.94916e-15 0.611237 13.1119)
(-6.29928e-15 1.57866 10.3847)
(-5.3042e-15 1.53766 7.40623)
(-3.61566e-15 0.667183 6.83574)
(-2.43592e-15 -0.202937 7.78751)
(-2.65691e-15 -0.660869 9.96323)
(-4.04603e-15 -0.750757 13.1811)
(-5.7205e-15 -0.467383 15.1827)
(-6.9625e-15 0.171921 14.7841)
(-6.68629e-15 0.893083 12.765)
(-1.59535e-15 1.65777 9.96337)
(2.30667e-14 2.84891 6.17456)
(-7.07508e-16 1.0594 9.53178)
(-2.73211e-16 1.16777 7.16021)
(-8.39011e-16 0.211593 6.52466)
(-2.74154e-16 -0.656192 6.63795)
(-1.45302e-17 -1.32085 7.60973)
(-1.63955e-15 -1.58972 9.02015)
(-4.53694e-15 -0.589605 9.69233)
(-6.01565e-15 1.43132 7.54152)
(-5.60464e-15 2.64013 4.38101)
(-4.53925e-15 1.47519 2.88875)
(-4.29223e-15 -0.336634 5.66307)
(-4.16322e-15 -1.06478 8.50613)
(-4.25202e-15 -1.68776 10.5101)
(-4.3847e-15 -1.77565 13.1845)
(-3.9391e-15 -0.755715 14.5334)
(-3.16932e-15 0.509448 13.1413)
(-3.28709e-15 1.16502 11.7474)
(-3.87175e-15 1.78407 12.0821)
(-3.35642e-15 3.16908 12.0756)
(-9.44768e-16 1.5121 7.71062)
(-1.04635e-16 1.60382 6.19587)
(-1.14131e-15 0.274137 5.8567)
(-2.0289e-15 -0.861316 5.96225)
(-2.05631e-15 -1.63889 6.61957)
(-2.73689e-15 -1.74385 7.17347)
(-4.65285e-15 0.0686636 6.19258)
(-5.50733e-15 2.59706 3.10821)
(-4.42848e-15 3.47883 1.32002)
(-2.79415e-15 1.07522 1.48742)
(-4.13343e-15 -1.56301 4.02228)
(-4.69353e-15 -2.11452 7.15542)
(-4.46718e-15 -2.49044 9.29401)
(-3.85045e-15 -2.28055 10.4143)
(-2.87579e-15 -0.430144 8.55225)
(-2.35172e-15 1.23839 4.49389)
(-1.86888e-15 0.863472 3.02068)
(-1.73216e-15 1.38214 5.00289)
(-2.30096e-15 5.75121 9.79341)
(-9.54443e-16 1.75769 6.40798)
(1.23513e-16 1.84994 5.6317)
(-8.86406e-16 0.342161 5.34321)
(-2.6952e-15 -0.98864 5.13498)
(-3.48566e-15 -1.76239 5.49668)
(-3.98116e-15 -1.44379 5.29178)
(-5.01855e-15 1.09996 2.70339)
(-4.62439e-15 3.31017 0.200334)
(-2.5428e-15 3.42121 0.393218)
(-8.91044e-16 0.463188 1.75452)
(-3.12486e-15 -2.50362 2.49131)
(-4.61012e-15 -3.1248 4.52331)
(-4.54812e-15 -2.95985 6.52748)
(-3.75889e-15 -1.69102 6.67144)
(-3.20762e-15 1.29648 3.56997)
(-2.74205e-15 2.61835 1.25412)
(-1.59458e-15 1.58489 0.250366)
(-1.20068e-15 -0.872408 -2.25538)
(3.9332e-16 -1.21683 -0.721651)
(-7.27447e-16 1.87933 5.53428)
(2.9098e-16 1.98578 5.29281)
(-3.59806e-16 0.516069 4.96819)
(-2.44462e-15 -0.947508 4.21907)
(-4.07671e-15 -1.65289 4.14288)
(-4.93105e-15 -0.731993 3.21834)
(-4.79447e-15 2.06847 -0.0300229)
(-2.68266e-15 3.48032 -0.551888)
(-4.65492e-16 2.88875 1.07378)
(2.85197e-16 0.19495 2.46908)
(-1.65887e-15 -2.76093 1.83283)
(-3.78768e-15 -3.72099 2.0341)
(-4.60237e-15 -3.29313 3.23332)
(-4.14553e-15 -1.06271 3.22503)
(-3.62264e-15 1.95868 0.377059)
(-2.12467e-15 2.87027 -0.404766)
(-7.68774e-16 2.06426 -0.659163)
(-2.25418e-16 1.07661 -1.09176)
(1.51303e-16 0.49375 -3.4636)
(-4.95463e-16 1.89102 4.97942)
(2.73456e-16 2.04216 5.07403)
(7.26354e-17 0.807195 4.76396)
(-1.56617e-15 -0.724118 3.4466)
(-3.78296e-15 -1.33338 2.61674)
(-4.95099e-15 0.245658 0.98504)
(-2.64816e-15 2.35132 -0.947345)
(-3.26792e-16 2.96476 0.336605)
(7.299e-16 2.19509 2.26139)
(5.62437e-16 0.204367 2.90151)
(-5.0958e-16 -2.45297 1.78046)
(-2.35482e-15 -3.66475 0.636327)
(-3.97708e-15 -3.4208 0.397287)
(-4.3047e-15 -0.49971 0.163411)
(-3.13176e-15 2.20439 -1.61967)
(-1.24594e-15 3.07489 -1.54767)
(-1.18924e-16 2.099 -1.12547)
(1.92162e-16 0.932264 -1.11786)
(5.04231e-16 0.200002 -2.08724)
(-3.38374e-16 1.8548 4.6529)
(1.48466e-16 2.05167 4.8664)
(2.44648e-16 1.17769 4.65784)
(-3.84821e-16 -0.0425361 3.26997)
(-2.43259e-15 -0.758324 1.20187)
(-2.58809e-15 0.88435 -0.724865)
(1.22663e-16 2.06055 0.121775)
(8.93168e-16 2.24654 1.86284)
(7.06715e-16 1.8414 2.86507)
(3.74671e-16 0.488104 2.70407)
(-4.90873e-18 -1.92047 1.6584)
(-9.83688e-16 -3.13895 0.265895)
(-2.4544e-15 -3.09497 -1.07918)
(-3.17021e-15 -0.470436 -2.07061)
(-1.61234e-15 2.31781 -2.62935)
(-2.75099e-16 2.84881 -1.832)
(2.20695e-16 1.90309 -0.939042)
(2.06163e-16 1.09945 -0.735577)
(1.1026e-16 0.638663 -1.25067)
(-2.85181e-16 1.80703 4.46264)
(6.1768e-18 2.03928 4.65018)
(1.78789e-16 1.43029 4.52993)
(3.68869e-16 0.740439 3.76151)
(4.17855e-16 0.2343 1.92522)
(7.80391e-16 0.782672 1.03281)
(9.66278e-16 1.54039 1.97682)
(6.76557e-16 1.8818 2.62494)
(4.65548e-16 1.84786 2.73089)
(3.85825e-16 0.841251 2.2385)
(1.99336e-16 -1.43183 1.16871)
(-1.76924e-16 -2.51182 0.20088)
(-9.93406e-16 -2.43963 -1.25786)
(-1.4867e-15 -0.073267 -2.57455)
(-3.67045e-16 2.16367 -2.46283)
(1.64615e-16 2.48556 -1.51735)
(1.80226e-16 1.71023 -0.821856)
(8.78426e-17 1.07769 -0.758827)
(3.52914e-18 0.646541 -1.01575)
(-3.03068e-16 1.7784 4.33887)
(-8.72368e-17 2.0119 4.46968)
(1.05851e-16 1.49815 4.40947)
(3.0176e-16 0.957704 4.09643)
(4.75716e-16 0.447143 3.36437)
(5.3878e-16 0.714276 2.77263)
(5.11273e-16 1.41953 2.73199)
(5.12499e-16 1.91344 2.67191)
(5.23983e-16 1.97014 2.48711)
(4.70537e-16 1.1373 2.01509)
(3.14106e-16 -1.29787 0.755301)
(1.52834e-16 -2.1801 -0.0407705)
(-1.43618e-16 -1.97821 -1.03009)
(-3.24658e-16 0.055153 -2.22976)
(1.35262e-16 1.90583 -1.89953)
(1.99546e-16 2.26801 -1.27393)
(1.18928e-16 1.65142 -0.915851)
(6.04246e-17 1.11621 -0.868566)
(1.01266e-17 0.74522 -1.00265)
(-3.40957e-16 1.73159 4.2477)
(-1.51377e-16 2.02052 4.34166)
(4.10906e-17 1.58878 4.35666)
(2.26528e-16 1.18565 4.24396)
(4.12255e-16 0.777142 3.91346)
(5.38207e-16 0.983752 3.42528)
(5.91875e-16 1.57726 3.02302)
(5.98276e-16 2.03938 2.67741)
(5.60331e-16 2.16036 2.3571)
(4.84108e-16 1.63297 1.99821)
(3.63367e-16 -0.65749 1.03817)
(2.65583e-16 -1.67745 -0.0309212)
(1.98802e-16 -1.47673 -0.656764)
(1.74336e-16 0.484379 -1.43635)
(2.28248e-16 1.72723 -1.42772)
(1.7194e-16 2.08327 -1.28879)
(1.03023e-16 1.57005 -1.09758)
(5.55052e-17 1.10232 -0.972117)
(8.03267e-18 0.804479 -1.00688)
(1.49537e-16 3.87287 7.06004)
(-1.44522e-15 16.1546 27.364)
(-1.33327e-15 19.2958 31.7958)
(-1.27687e-15 17.966 28.8919)
(-1.33001e-15 16.0553 25.2251)
(-1.86748e-15 14.7765 22.6015)
(-1.84508e-15 13.7714 20.6827)
(-1.72653e-15 13.0335 19.2537)
(-1.78363e-15 12.3117 17.9271)
(-1.89919e-15 11.5809 16.621)
(-2.03334e-15 10.8275 15.3523)
(-2.22077e-15 10.0804 14.1179)
(-2.42667e-15 9.31947 12.9273)
(-2.66593e-15 8.55766 11.7617)
(-2.9436e-15 7.76245 10.6142)
(-3.22833e-15 6.94209 9.45089)
(-3.52142e-15 6.03335 8.22907)
(-4.44229e-15 5.0153 6.89346)
(-5.98964e-15 3.71502 5.1215)
(-1.2724e-14 1.79826 2.84905)
(6.25413e-17 4.52516 7.08788)
(-1.25337e-15 16.1252 27.3005)
(-9.33934e-16 17.7969 29.9578)
(-9.72808e-16 15.5547 26.2935)
(-1.13266e-15 13.6559 23.1495)
(-1.83417e-15 12.555 21.2229)
(-1.36684e-15 11.7436 19.8874)
(-1.21988e-15 11.0357 18.5703)
(-1.45314e-15 10.2717 17.275)
(-1.69619e-15 9.55356 15.975)
(-1.6872e-15 8.82123 14.7188)
(-1.84793e-15 8.11951 13.4761)
(-2.25495e-15 7.40006 12.2567)
(-2.27962e-15 6.68953 11.0204)
(-2.62e-15 5.9252 9.76959)
(-2.94885e-15 5.14464 8.43156)
(-3.31325e-15 4.21575 6.97856)
(-4.93036e-15 3.19863 5.24018)
(-7.84558e-15 1.62898 2.83106)
(-1.70577e-14 0.176105 0.122369)
(-4.38026e-18 5.81852 9.66019)
(-4.51265e-16 16.8985 29.2379)
(-3.04248e-16 17.9386 30.6877)
(-2.98897e-16 15.9665 27.1946)
(-4.28104e-16 14.2502 24.1362)
(-1.02636e-15 13.1147 22.0013)
(-5.36443e-16 12.227 20.4597)
(-5.25149e-16 11.4872 19.0828)
(-6.63223e-16 10.7322 17.7577)
(-7.17689e-16 9.99946 16.4297)
(-7.25556e-16 9.25325 15.1188)
(-7.75726e-16 8.51433 13.8138)
(-9.15701e-16 7.75848 12.5187)
(-9.07059e-16 6.99817 11.2082)
(-1.09699e-15 6.19096 9.87939)
(-1.32587e-15 5.36341 8.47396)
(-1.56276e-15 4.40609 6.96936)
(-2.07181e-15 3.39473 5.24136)
(-2.91612e-15 2.00214 3.13446)
(-2.39752e-15 0.866021 0.960436)
(3.70804e-18 5.32445 8.72101)
(1.10482e-16 16.5052 28.9938)
(8.1321e-17 17.8656 31.121)
(8.38331e-17 15.9985 27.631)
(9.90548e-17 14.222 24.4574)
(-5.46416e-16 13.0639 22.2232)
(-4.37696e-16 12.1877 20.6453)
(-4.6872e-16 11.4649 19.2441)
(-6.23741e-16 10.7257 17.8882)
(-6.48393e-16 9.9858 16.5149)
(-6.92455e-16 9.22036 15.1351)
(-7.5747e-16 8.44151 13.7467)
(-9.07476e-16 7.63769 12.3539)
(-9.71289e-16 6.81579 10.9392)
(-1.14137e-15 5.94228 9.4954)
(-1.33504e-15 5.03669 7.96207)
(-1.65728e-15 3.98049 6.3078)
(-2.38055e-15 2.86337 4.35286)
(-2.96326e-15 1.12938 1.82361)
(-1.44283e-14 -0.107662 -1.12171)
(-1.54287e-18 4.65675 7.54251)
(-2.76191e-17 16.398 28.4518)
(-1.90135e-17 18.5455 32.172)
(-2.07428e-17 16.8728 28.8923)
(-2.4986e-17 14.9963 25.5227)
(1.41298e-16 13.7827 23.1132)
(1.16252e-16 12.8887 21.4108)
(1.26523e-16 12.1459 19.9198)
(1.56431e-16 11.3897 18.4617)
(1.69195e-16 10.5991 16.9697)
(1.74836e-16 9.76618 15.4466)
(1.88963e-16 8.8971 13.9056)
(2.21998e-16 7.99399 12.3565)
(2.31949e-16 7.06123 10.7934)
(2.74289e-16 6.07776 9.20698)
(3.25529e-16 5.0502 7.54641)
(4.16e-16 3.8848 5.77107)
(3.23879e-16 2.64118 3.69651)
(2.71183e-15 0.801978 1.13324)
(-1.15628e-14 -0.639491 -2.06906)
(-8.73223e-21 5.37524 8.56101)
(6.55709e-18 17.1251 28.3813)
(4.83581e-18 19.6355 32.8928)
(4.79218e-18 18.087 29.8874)
(7.16529e-18 16.1686 26.5398)
(-2.88563e-17 14.9792 24.1281)
(-3.20538e-17 14.0998 22.3727)
(-3.0214e-17 13.3356 20.7657)
(-3.63148e-17 12.5233 19.1362)
(-4.14621e-17 11.637 17.4301)
(-4.42294e-17 10.6799 15.6637)
(-4.82063e-17 9.66403 13.864)
(-5.24834e-17 8.59789 12.0511)
(-5.67124e-17 7.48593 10.2262)
(-6.58914e-17 6.30987 8.38091)
(-8.3022e-17 5.06443 6.46172)
(-6.67668e-17 3.67166 4.4302)
(-2.96878e-16 2.13419 2.04603)
(8.84879e-16 -0.0537596 -0.863266)
(-7.71771e-15 -1.27038 -3.81146)
(8.70352e-20 9.11031 15.0965)
(-1.31778e-18 19.5115 31.0671)
(-1.24557e-18 20.4997 33.2966)
(-1.12681e-18 18.9 30.2367)
(-1.97752e-18 17.2107 27.5212)
(4.78646e-18 16.3065 25.5097)
(7.57172e-18 15.4968 23.8765)
(7.39648e-18 14.7094 22.1466)
(8.1855e-18 13.7681 20.2774)
(9.21601e-18 12.7157 18.2619)
(1.00518e-17 11.5636 16.162)
(1.11734e-17 10.34 14.0123)
(1.20433e-17 9.04963 11.8351)
(1.31836e-17 7.69044 9.63046)
(1.63199e-17 6.23735 7.39425)
(1.54148e-17 4.66687 5.07206)
(5.00374e-17 2.86341 2.76083)
(-1.24787e-16 1.00694 0.215345)
(7.46851e-16 -1.56775 -2.79992)
(-4.97406e-15 -2.47538 -6.14804)
(-2.67244e-20 13.8673 24.1301)
(2.5491e-19 21.5428 34.4673)
(2.96817e-19 19.5078 32.6147)
(2.67792e-19 18.1341 29.7022)
(4.87791e-19 16.8886 28.2394)
(-7.65583e-19 16.3772 26.847)
(-1.61208e-18 15.4425 25.3785)
(-1.74364e-18 14.4417 23.4178)
(-1.87757e-18 13.1069 21.2134)
(-2.08577e-18 11.684 18.8083)
(-2.2845e-18 10.1324 16.3357)
(-2.25111e-18 8.50772 13.7795)
(-1.98168e-18 6.76415 11.129)
(-1.90859e-18 4.87756 8.34312)
(6.66207e-18 2.79039 5.37918)
(3.23947e-17 0.239431 2.07345)
(-7.865e-18 -4.25642 -2.80753)
(9.40522e-17 -2.47552 -3.52624)
(6.052e-16 -4.66859 -5.81409)
(-4.42246e-15 -4.00106 -8.7483)
(6.67687e-21 16.2606 29.4057)
(-5.80804e-20 19.9056 33.0932)
(-7.11779e-20 16.4648 29.7958)
(-6.82048e-20 16.0403 28.2078)
(-1.11658e-19 14.8956 27.5399)
(1.98063e-19 14.2841 26.2534)
(3.98667e-19 12.8802 24.6239)
(4.40025e-19 11.4328 22.2831)
(4.14063e-19 9.60129 19.7282)
(2.53012e-19 7.81064 17.0125)
(5.53658e-19 5.91374 14.2875)
(2.84388e-18 3.99547 11.4488)
(5.29641e-18 1.97855 8.49093)
(6.08948e-18 -0.0673464 5.42338)
(3.48658e-17 -1.97482 2.47782)
(7.75025e-17 -3.37315 0.249015)
(-2.10553e-16 -4.28893 -1.41201)
(-1.28353e-15 -5.04328 -3.4476)
(-2.70807e-15 -4.63336 -4.12637)
(-2.61386e-15 -1.49041 -1.20263)
(-1.35206e-21 15.0431 27.5535)
(1.51493e-20 17.0407 29.5012)
(1.82293e-20 14.5938 27.2174)
(2.08659e-20 13.9473 25.5768)
(1.40324e-20 12.5769 24.6291)
(-6.55591e-20 11.6046 23.1997)
(-1.00032e-19 9.99631 21.5056)
(-1.01251e-19 8.34152 19.2146)
(-2.34556e-19 6.4151 16.7101)
(-6.2805e-19 4.51764 14.0541)
(1.42116e-20 2.575 11.3942)
(5.49626e-18 0.690529 8.74408)
(1.33493e-17 -1.0653 6.24706)
(-9.25815e-18 -2.44195 4.17235)
(-1.34142e-16 -3.16484 2.84091)
(-4.15139e-16 -2.94026 2.62475)
(-7.83334e-16 -1.31417 4.25843)
(-9.86027e-16 2.05938 8.12195)
(-7.06021e-16 5.95465 12.4047)
(-3.55107e-17 5.63498 11.5519)
(1.74276e-22 13.2196 24.0639)
(-4.11108e-21 16.8429 28.733)
(-5.00453e-21 14.2295 25.7899)
(-5.56858e-21 13.328 23.0104)
(3.85027e-23 11.7533 21.6513)
(2.13684e-20 10.9278 19.8408)
(3.61457e-20 9.50409 18.2206)
(5.37795e-20 8.28382 16.1642)
(4.97968e-22 6.80941 13.974)
(-3.69344e-19 5.412 11.5608)
(-7.48801e-19 4.03984 9.15771)
(1.69501e-18 2.91571 6.98718)
(1.19381e-17 2.2237 5.45697)
(2.95864e-17 2.25561 5.06458)
(4.44245e-17 3.23126 6.23524)
(5.35871e-17 5.09166 8.89444)
(7.92346e-17 7.36836 12.2555)
(1.41717e-16 9.14657 15.1946)
(2.03078e-16 9.98215 16.0837)
(1.27331e-16 6.98845 12.7443)
(-4.76951e-23 12.9396 23.4896)
(1.07492e-21 17.8632 29.5109)
(1.28593e-21 14.944 26.5922)
(1.44262e-21 14.2619 23.2536)
(3.15192e-22 12.642 21.7734)
(-5.0493e-21 12.1258 19.7927)
(-8.35882e-21 11.0194 18.3033)
(-1.14725e-20 10.3263 16.6691)
(-1.14504e-20 9.53093 15.2024)
(1.88025e-20 8.88811 13.7353)
(8.95844e-20 8.29165 12.2887)
(4.17809e-20 7.77471 10.8479)
(-4.73325e-19 7.34219 9.46725)
(-1.64772e-18 7.02346 8.30554)
(-3.29789e-18 6.90399 7.61214)
(-5.22715e-18 6.99794 7.68401)
(-7.50095e-18 7.30865 8.51328)
(-1.16972e-17 7.42773 9.66151)
(-2.39048e-17 6.94655 9.96738)
(-3.70871e-17 4.59167 7.40751)
(1.36512e-23 13.5894 24.6863)
(-2.79131e-22 18.7471 30.429)
(-3.4146e-22 15.499 27.524)
(-3.81572e-22 15.0561 24.2887)
(-1.58761e-22 13.4798 22.8895)
(1.10169e-21 13.0446 20.9868)
(2.03592e-21 12.0604 19.4914)
(2.6348e-21 11.3691 17.8675)
(2.85763e-21 10.6168 16.3717)
(3.34732e-22 9.92807 14.936)
(-6.08859e-21 9.27658 13.571)
(-3.22992e-21 8.65013 12.2642)
(3.76916e-20 8.0444 10.996)
(1.31246e-19 7.44748 9.76125)
(2.59542e-19 6.84758 8.57718)
(4.06419e-19 6.25019 7.49994)
(5.37163e-19 5.60431 6.61808)
(4.62321e-19 4.92312 5.85423)
(4.02608e-19 3.70403 4.84667)
(3.65553e-18 1.64824 1.55199)
(-4.1993e-24 14.6015 26.8934)
(7.05713e-23 19.3563 30.822)
(8.98727e-23 15.5798 28.0868)
(1.00153e-22 15.6836 25.0472)
(6.0568e-23 13.8943 23.8378)
(-2.2469e-22 13.613 21.862)
(-4.83155e-22 12.5258 20.4282)
(-6.38845e-22 11.8732 18.7712)
(-7.09452e-22 11.072 17.256)
(-4.52957e-22 10.3445 15.7273)
(2.81186e-22 9.6105 14.2273)
(1.11803e-22 8.87559 12.7396)
(-4.16476e-21 8.12084 11.2647)
(-1.48082e-20 7.33711 9.79502)
(-3.02589e-20 6.48052 8.32443)
(-4.55865e-20 5.54497 6.78815)
(-4.89e-20 4.39877 5.15646)
(1.33234e-20 3.15888 3.28033)
(3.67728e-19 1.12968 0.985477)
(1.09942e-18 -0.345674 -2.64187)
(1.24461e-24 15.7049 29.725)
(-1.75936e-23 19.6757 30.7645)
(-2.31362e-23 15.5772 28.7898)
(-2.57943e-23 16.3626 25.9814)
(-1.97537e-23 14.2699 24.97)
(4.35292e-23 14.2207 22.9392)
(1.10098e-22 13.0216 21.6125)
(1.51237e-22 12.4945 19.9906)
(1.71138e-22 11.7197 18.5803)
(1.451e-22 11.0869 17.1167)
(3.85585e-23 10.4084 15.6435)
(-1.2319e-23 9.68451 14.0594)
(3.99266e-22 8.82924 12.3075)
(1.70413e-21 7.78905 10.3346)
(3.96716e-21 6.50193 8.17225)
(6.89612e-21 5.04495 5.8486)
(8.1221e-21 3.33037 3.4431)
(1.39321e-20 1.65817 0.798041)
(-5.98345e-20 -0.975929 -2.00674)
(8.50989e-19 -2.04839 -5.78876)
(-3.11296e-25 16.2092 31.6817)
(4.35207e-24 19.4117 30.093)
(5.71595e-24 15.3595 29.2105)
(6.37081e-24 16.535 26.5615)
(5.53538e-24 14.2199 25.6986)
(-9.02185e-24 14.2976 23.748)
(-2.60803e-23 13.0287 22.5764)
(-3.8956e-23 12.5913 21.0936)
(-4.9793e-23 11.8218 19.87)
(-5.41512e-23 11.2551 18.5643)
(-2.86639e-23 10.5653 17.1966)
(5.69673e-23 9.73363 15.5219)
(2.01994e-22 8.53953 13.3293)
(3.02411e-22 6.85906 10.459)
(1.28092e-22 4.77028 7.16958)
(-4.17411e-22 2.73798 4.06393)
(-3.04149e-21 0.700212 1.22021)
(1.30731e-20 -0.913651 -2.34465)
(-1.22723e-19 -3.50416 -4.63863)
(6.16801e-19 -3.60215 -8.57193)
(8.71193e-26 15.669 31.5933)
(-1.13937e-24 18.6364 28.9146)
(-1.50429e-24 14.6265 28.6095)
(-1.6298e-24 15.6501 26.1022)
(-1.26626e-24 13.4371 25.2335)
(2.31172e-24 13.2628 23.4885)
(5.25345e-24 12.0599 22.3618)
(3.42086e-24 11.493 21.0436)
(-4.84612e-24 10.6895 19.9268)
(-1.06142e-23 10.0285 18.7228)
(3.05364e-23 9.18677 17.3418)
(2.18351e-22 8.0645 15.3993)
(6.44483e-22 6.35461 12.4944)
(1.14932e-21 4.00593 8.49219)
(1.12561e-21 1.64011 4.44256)
(-1.76836e-21 0.327273 2.27205)
(-1.85129e-20 -0.463241 0.895488)
(-5.48945e-20 -2.3251 -2.47108)
(-6.0575e-20 -4.6154 -5.87409)
(1.53454e-19 -3.36953 -5.90979)
(2.18927e-28 14.163 30.4522)
(2.8103e-25 17.9623 27.6787)
(3.518e-25 13.3473 27.5246)
(5.1061e-25 14.1611 25.2472)
(3.33465e-25 12.0964 24.3378)
(-1.02077e-24 11.5748 22.8161)
(-3.63343e-24 10.4459 21.6755)
(-9.29479e-24 9.67924 20.4639)
(-1.88022e-23 8.8404 19.3596)
(-1.85746e-23 8.05948 18.2102)
(3.93796e-23 7.18016 16.8862)
(2.34853e-22 6.09286 15.1068)
(6.20902e-22 4.68084 12.6142)
(1.00534e-21 3.05551 9.46603)
(-1.28281e-22 1.56721 6.19697)
(-8.71699e-21 0.392974 3.31223)
(-3.72753e-20 -0.656981 0.694319)
(-9.07655e-20 -1.58515 -1.77516)
(-1.27037e-19 -2.04711 -3.02303)
(-8.41111e-20 -0.852841 -0.383166)
(5.13481e-27 11.0895 28.2816)
(-9.34468e-26 16.8997 24.7583)
(-1.49637e-25 11.899 25.1498)
(-8.94301e-26 12.5309 23.4333)
(1.76173e-25 10.7825 22.686)
(3.57532e-25 10.0951 21.5957)
(-3.00289e-25 9.07587 20.6861)
(-2.74859e-24 8.27413 19.7537)
(-7.40695e-24 7.47477 18.8767)
(-1.05585e-23 6.75321 18.0128)
(-1.12382e-25 6.07062 17.1499)
(3.99663e-23 5.43895 16.2476)
(1.13696e-22 4.86097 15.253)
(2.04066e-22 4.34735 14.0855)
(2.44861e-22 3.89517 12.6808)
(-1.97049e-22 3.45733 11.028)
(-2.99374e-21 2.95015 9.05279)
(-1.26002e-20 2.33224 6.43386)
(-3.23082e-20 1.32724 2.80276)
(-4.39224e-20 -0.403973 -1.09664)
(6.71858e-27 2.57492 17.0062)
(2.56993e-26 8.04258 13.6234)
(1.17663e-26 5.17784 14.4639)
(-3.78431e-26 5.00286 14.0612)
(-1.19119e-25 4.09542 14.0091)
(-1.77415e-25 3.54733 13.8231)
(-7.16051e-26 2.99058 13.6547)
(1.9443e-25 2.54272 13.4601)
(-4.98134e-25 2.16273 13.2594)
(-5.71677e-24 1.86308 13.053)
(-2.06216e-23 1.63703 12.8405)
(-4.62872e-23 1.4806 12.6113)
(-7.21886e-23 1.38547 12.3491)
(-7.60208e-23 1.35529 12.032)
(-3.07803e-23 1.40694 11.638)
(1.02946e-22 1.51299 11.1804)
(3.95789e-22 1.6974 10.6362)
(8.54078e-22 2.23138 9.73036)
(1.09546e-21 2.32344 8.39415)
(3.94375e-22 -0.286637 6.23663)
(-6.59504e-27 -2.57506 17.0064)
(-2.5899e-26 -8.04268 13.6237)
(-1.29228e-26 -5.17792 14.4642)
(3.66309e-26 -5.00291 14.0615)
(1.19124e-25 -4.09547 14.0093)
(1.83617e-25 -3.54738 13.8234)
(1.00905e-25 -2.99065 13.655)
(-1.14871e-25 -2.54282 13.4604)
(6.40186e-25 -2.16286 13.2597)
(5.87533e-24 -1.86321 13.0532)
(2.06627e-23 -1.63713 12.8406)
(4.59789e-23 -1.48062 12.6113)
(7.1105e-23 -1.38538 12.3489)
(7.33754e-23 -1.35509 12.0315)
(2.63452e-23 -1.40667 11.6374)
(-1.04046e-22 -1.51266 11.1799)
(-3.75101e-22 -1.69705 10.6359)
(-7.85272e-22 -2.23087 9.73021)
(-9.90809e-22 -2.32262 8.39419)
(-3.52054e-22 0.286672 6.23601)
(-5.67117e-27 -11.0894 28.2818)
(9.10008e-26 -16.9 24.7581)
(1.51476e-25 -11.8991 25.1496)
(9.07048e-26 -12.5313 23.4329)
(-1.87777e-25 -10.7829 22.6855)
(-3.63402e-25 -10.0957 21.595)
(3.56151e-25 -9.0765 20.6853)
(2.91491e-24 -8.27489 19.7529)
(7.67543e-24 -7.47568 18.8758)
(1.08694e-23 -6.75429 18.0119)
(3.75419e-25 -6.07198 17.149)
(-3.98758e-23 -5.44071 16.247)
(-1.13097e-22 -4.86324 15.2529)
(-1.97631e-22 -4.35009 14.0859)
(-2.20757e-22 -3.8982 12.6819)
(2.17541e-22 -3.46051 11.03)
(2.78731e-21 -2.95331 9.05558)
(1.14294e-20 -2.33529 6.4371)
(2.89694e-20 -1.3298 2.80435)
(3.91695e-20 0.404853 -1.10009)
(1.28051e-27 -14.1624 30.4511)
(-2.68231e-25 -17.9618 27.6773)
(-3.50871e-25 -13.3466 27.5232)
(-5.38961e-25 -14.1605 25.2457)
(-3.45265e-25 -12.0957 24.3362)
(1.11052e-24 -11.5741 22.8143)
(3.87956e-24 -10.4452 21.6737)
(9.65623e-24 -9.67845 20.462)
(1.90347e-23 -8.83953 19.3578)
(1.81039e-23 -8.05844 18.2081)
(-4.14467e-23 -7.17884 16.8836)
(-2.36662e-22 -6.0913 15.1036)
(-6.01147e-22 -4.67979 12.6113)
(-8.97935e-22 -3.0565 9.46578)
(3.32754e-22 -1.57107 6.20081)
(8.40988e-21 -0.398438 3.31913)
(3.41804e-20 0.650807 0.702269)
(8.09562e-20 1.57783 -1.76784)