/*--------------------------------*- C++ -*----------------------------------*\
| =========                 |                                                 |
| \\      /  F ield         | OpenFOAM: The Open Source CFD Toolbox           |
|  \\    /   O peration     | Version:  4.1                                   |
|   \\  /    A nd           | Web:      www.OpenFOAM.org                      |
|    \\/     M anipulation  |                                                 |
\*---------------------------------------------------------------------------*/
FoamFile
{
    version     2.0;
    format      ascii;
    class       volScalarField;
    location    "22";
    object      p;
}
// * * * * * * * * * * * * * * * * * * * * * * * * * * * * * * * * * * * * * //

dimensions      [0 2 -2 0 0 0 0];

internalField   nonuniform List<scalar> 
1280
(
0.956434
0.0396126
1.56679
2.51211
3.09765
3.60197
3.88522
4.35909
4.44889
4.45622
4.45317
4.45821
3.48198
2.95976
2.51451
-0.127571
-2.08451
-4.23694
-9.65089
-16.5177
-14.3272
1.02725
21.1143
27.395
27.8373
31.4507
-6.312
14.3287
14.034
13.4113
12.6067
11.4807
10.1791
8.52677
6.9316
5.36725
5.45497
6.10794
9.47859
7.34251
-39.7264
-3.23956
8.51562
13.6886
31.8256
31.0393
32.2315
33.9882
37.1831
36.4597
36.4401
36.9987
32.7516
29.8234
28.9159
32.4019
11.0433
5.74033
-6.26114
-39.0222
9.6538
12.3045
8.95172
8.64784
8.88189
10.8783
12.8764
14.9485
16.7002
18.3396
19.5769
20.7669
22.2111
0.916834
43.004
40.2933
41.0617
36.1964
15.1522
-2.57725
-6.56853
2.36446
0.753876
-1.62484
4.18071
3.72213
1.48974
5.88081
5.49967
4.12438
7.02596
6.32089
5.62374
6.26184
7.08976
4.91217
4.90877
5.22989
2.93288
0.653132
-0.0107166
-0.0984301
-0.052013
-0.632073
-0.858955
-0.510425
0.359243
1.15937
2.62637
3.81527
4.9445
7.95928
2.39446
0.740822
-2.81387
-8.44693
-15.5086
-6.10687
2.064
-0.0541512
-0.35858
-0.208895
-0.972836
-1.39152
-0.982346
0.124215
1.13525
3.01161
5.6801
8.77682
16.8231
9.76125
5.6212
-4.04464
-22.2759
-34.6948
-15.6905
2.35666
-0.124709
-0.865212
-0.902545
-1.50846
-1.80742
-1.27703
0.0451114
1.12149
3.09591
6.41275
10.3495
21.0976
15.2108
7.68716
-5.59785
-34.3316
-46.1595
-20.1766
3.65432
-0.272999
-1.58279
-1.86544
-2.40998
-2.5633
-1.81997
-0.0846158
1.30394
3.62193
7.39031
12.0428
23.9031
19.3549
10.318
-4.55584
-42.1253
-49.9408
-22.8896
6.26923
-0.48656
-2.44287
-3.04106
-3.56014
-3.54297
-2.61313
-0.444764
1.29646
3.99013
8.00971
13.179
24.7648
21.846
11.8639
-3.34385
-45.936
-48.2428
-24.3775
8.27405
-0.763552
-3.32666
-4.29758
-4.8936
-4.74411
-3.7321
-1.15611
0.989652
4.01574
8.06832
13.3769
23.6749
22.5208
12.2388
-1.37332
-42.1953
-42.5969
-22.4122
14.4711
-1.1494
-4.3464
-5.77002
-6.40693
-6.16754
-5.24475
-2.35458
0.296251
3.66104
7.61692
12.6744
20.8892
20.7242
10.8007
0.557135
-33.7789
-37.33
-22.8553
16.8693
-1.63242
-5.57393
-7.55694
-8.14551
-7.80316
-7.06902
-3.98644
-0.825647
2.89331
6.63685
11.0186
15.9795
16.1073
7.90575
2.73457
-22.2982
-34.5303
-18.6639
31.6116
-2.11562
-6.85247
-9.37679
-9.85664
-9.38947
-8.89969
-5.77203
-2.20788
1.78186
5.1934
8.52405
8.6429
9.72679
5.14841
5.96167
-5.75639
-17.5739
-4.61091
57.3533
-2.47875
-8.06003
-10.9578
-11.2833
-10.8238
-10.6454
-7.53915
-3.62748
0.475623
3.48236
5.7605
0.796913
4.39924
4.55361
10.0037
5.43295
-2.72644
11.4163
57.589
-2.68153
-9.12374
-12.2003
-12.7426
-12.2855
-12.2706
-9.08441
-4.938
-0.874615
1.74878
3.41873
-4.78322
1.25195
5.51002
14.2768
11.2181
3.62676
15.4758
57.3941
-2.79989
-9.80272
-12.5916
-13.6899
-13.4338
-13.4675
-10.2213
-6.02302
-2.10612
0.169992
1.75991
-8.12794
-2.15604
5.7023
15.6349
11.249
10.3911
19.9347
58.4742
-2.78819
-9.40641
-12.5635
-14.0596
-14.1469
-14.0386
-10.7435
-6.69805
-3.07213
-1.13515
0.76346
-9.7949
-5.89083
5.19519
12.6184
10.7844
13.3228
15.4268
13.1891
-2.70934
-8.64652
-11.7366
-13.3142
-13.6331
-13.4124
-10.467
-6.8827
-3.6995
-2.12547
0.299179
-8.67567
-7.78562
5.21052
11.3884
11.1373
12.0448
9.74019
-2.80397
-2.53298
-7.80731
-10.5542
-11.9702
-12.3063
-12.0483
-9.65285
-6.69228
-3.99414
-2.68307
0.325974
-5.19354
-7.91484
5.1354
9.74245
10.3776
10.8985
9.49403
3.56204
-2.25097
-6.92961
-9.20989
-10.3721
-10.6604
-10.3775
-8.50411
-6.15957
-3.95232
-2.95899
0.127406
-1.01466
-7.17157
5.05355
8.4764
9.53421
9.67595
8.14324
5.46377
-1.85361
-5.92582
-7.67373
-8.54714
-8.76873
-8.51079
-7.14454
-5.43472
-3.69287
-2.68361
0.455362
3.5292
-5.99929
4.82518
7.01791
8.12784
8.06804
6.74301
4.38859
-1.3366
-4.76575
-6.0082
-6.5267
-6.6816
-6.4511
-5.47165
-4.23981
-2.97693
-2.52516
-0.862525
6.313
-4.68316
4.59607
5.74974
6.7573
6.51319
5.26618
3.53378
-0.85939
-3.18022
-3.95067
-4.12304
-4.22521
-4.08766
-3.60418
-3.10935
-2.45701
-1.32025
0.785586
7.20924
-4.6877
3.71228
4.36322
5.15366
4.881
3.86167
2.40575
-0.605245
-1.74266
-1.78055
-1.66873
-1.69659
-1.63187
-1.34936
-0.869071
-0.419586
-1.53535
-4.619
1.43807
-4.83287
0.667658
1.07495
1.47715
1.38273
1.22714
0.831859
116.085
116.132
114.289
113.263
111.021
108.855
106.44
104.094
101.522
99.181
97.0707
95.1871
93.578
92.2241
91.141
90.2305
89.5449
88.9021
88.5759
87.6238
69.0726
71.5367
71.1795
72.0718
72.6252
73.4074
74.1671
74.8539
75.5473
76.1732
76.788
77.3859
77.9784
78.5814
79.2006
79.8858
80.5863
81.4479
82.0768
82.9581
57.6611
59.8523
60.931
62.2581
63.3089
64.2112
65.1335
65.908
66.6642
67.3514
68.0022
68.6326
69.2502
69.8882
70.5357
71.2665
71.9882
72.9076
73.601
74.6847
23.7604
26.5041
30.091
33.4369
36.3793
38.8735
41.312
43.5147
45.6254
47.5823
49.4017
51.0882
52.634
54.0686
55.3689
56.6153
57.7085
58.8929
59.7376
60.9746
5.05012
6.07826
8.69914
10.8124
12.8906
14.617
16.5573
18.4275
20.4354
22.5036
24.6642
26.9029
29.1827
31.4884
33.727
35.9416
37.9677
40.1524
41.9285
44.717
-0.789745
-3.75915
-5.56507
-7.98237
-9.78188
-12.0787
-13.9912
-16.1084
-17.8219
-19.2397
-20.0722
-20.2826
-19.7718
-18.5098
-16.5932
-14.1173
-11.5369
-8.80582
-6.68118
-2.98464
29.7392
23.4419
20.5692
16.3595
12.9371
8.68397
4.75716
0.319469
-3.92412
-8.27817
-12.4267
-16.3786
-19.8929
-22.7958
-24.8405
-25.9941
-26.274
-25.9758
-26.0716
-24.4808
81.3307
76.1667
73.8959
70.0774
67.6193
64.0363
61.1428
57.7647
54.8903
52.0331
49.598
47.3886
45.5574
44.0468
42.8993
42.0226
41.4121
41.2736
40.0704
36.0082
114.962
114.765
115.273
114.848
115.404
114.866
114.892
113.96
112.908
110.994
108.425
104.885
100.442
95.3007
90.0789
85.479
82.1028
80.4788
80.2534
77.2525
91.3279
93.263
94.5493
95.2934
97.0491
97.8512
99.5449
100.739
102.224
103.475
104.636
105.468
105.824
105.486
104.396
102.695
101.197
100.24
100.414
100.14
77.9933
79.9123
81.7029
82.0826
84.1575
84.6532
86.1933
87.0195
88.0727
88.9227
89.7317
90.5211
91.3647
92.3363
93.4902
94.7952
96.1388
97.5042
98.5122
99.652
52.4359
54.3166
56.7745
57.0464
59.8432
60.5029
62.6545
63.9645
65.6611
67.2119
68.771
70.3128
71.8221
73.3286
74.8269
76.3945
77.9427
79.6676
81.0188
82.7778
26.4934
27.1538
29.9059
29.338
32.3704
32.421
34.7086
35.7377
37.5374
39.1206
40.8843
42.7192
44.641
46.6783
48.7763
50.9955
53.167
55.5451
57.4348
60.3953
3.58491
1.77037
3.88926
1.50166
3.43539
1.50394
2.38996
1.3439
1.39733
0.881331
0.668661
0.521272
0.728883
1.46396
2.73322
4.58917
6.72348
9.43162
11.3699
14.7919
10.7816
6.95118
8.16975
4.51837
5.30128
2.26102
1.86949
-0.463404
-1.82663
-3.9333
-5.83898
-7.88613
-9.73017
-11.3442
-12.6795
-13.7646
-14.4718
-14.5305
-14.4882
-12.4016
40.7495
36.1826
37.6279
32.9053
33.9281
30.7126
30.4494
28.5618
27.702
26.4498
25.552
24.6643
23.9666
23.3447
22.7676
21.9745
20.6836
19.0763
16.0983
15.0962
75.4177
71.3636
74.0659
67.8678
68.8368
64.9287
63.855
61.4531
59.8699
58.1369
56.7117
55.4445
54.423
53.6012
52.915
52.3101
51.75
50.7504
49.4996
47.8667
59.845
53.8597
62.6934
56.5172
59.3944
56.9044
56.5906
55.0146
53.7904
52.3222
50.9458
49.6346
48.5018
47.5697
46.8879
46.5046
46.3591
46.744
47.4542
48.6523
66.9184
44.7636
52.8528
41.973
39.2724
32.7493
27.8775
22.6948
18.1858
14.1386
10.782
8.18001
6.44185
5.65356
5.97796
7.38046
9.6107
12.998
16.9614
19.8603
756.979
674.287
625.085
568.883
519.922
472.753
428.953
387.655
348.861
312.279
277.729
245.002
213.885
184.283
156.182
128.768
102.235
80.7728
56.6991
20.9985
766.531
683.838
634.636
578.433
529.472
482.301
438.501
397.203
358.407
321.825
287.275
254.548
223.43
193.829
165.728
138.315
111.782
90.3223
66.2516
30.5495
76.4562
54.3005
62.3891
51.5084
48.8069
42.2829
37.4102
32.2268
27.717
23.6692
20.3121
17.7096
15.9709
15.1821
15.5058
16.9077
19.1384
22.5246
26.4841
29.3838
69.3819
63.3973
72.231
66.0551
68.9324
66.4427
66.1291
64.5534
63.3298
61.8622
60.4867
59.1763
58.0443
57.1128
56.4313
56.0486
55.9041
56.2908
57.0022
58.2053
84.9947
80.943
83.646
77.4491
78.4191
74.5118
73.4388
71.0373
69.4544
67.7213
66.2956
65.0276
64.0048
63.1815
62.4941
61.8886
61.3287
60.3315
59.0885
57.4609
50.4037
45.8399
47.2869
42.5672
43.594
40.383
40.1251
38.2436
37.3907
36.1462
35.2568
34.3782
33.6896
33.0761
32.5065
31.7207
30.435
28.8282
25.8342
24.8134
20.4146
16.5812
17.7962
14.1407
14.9198
11.8752
11.4791
9.14077
7.77164
5.65752
3.74281
1.68487
-0.171138
-1.79809
-3.14446
-4.24057
-4.96131
-5.02931
-4.9941
-2.91067
13.1103
11.2879
13.4011
11.0079
12.9351
10.9972
11.8767
10.8234
10.8703
10.3471
10.1282
9.97541
10.18
10.9143
12.1844
14.0419
16.1772
18.8823
20.8172
24.2392
35.9775
36.6333
39.3845
38.8145
41.8459
41.8946
44.1817
45.2095
47.0091
48.592
50.356
52.1914
54.1141
56.1527
58.2521
60.4728
62.6461
65.0265
66.9188
69.8838
61.9363
63.8164
66.2756
66.5479
69.346
70.0065
72.1594
73.4704
75.1682
76.7201
78.2802
79.8231
81.3337
82.8416
84.3415
85.9108
87.4603
89.1863
90.5384
92.2991
87.5044
89.4235
91.2151
91.5949
93.6704
94.1665
95.7072
96.5348
97.59
98.4435
99.2579
100.055
100.906
101.886
103.045
104.352
105.694
107.058
108.066
109.209
100.881
102.823
104.116
104.866
106.628
107.437
109.138
110.34
111.832
113.09
114.255
115.086
115.437
115.088
113.985
112.275
110.78
109.835
110.016
109.748
124.55
124.368
124.88
124.461
125.019
124.483
124.508
123.574
122.516
120.596
118.022
114.479
110.04
104.908
99.7004
95.1165
91.7541
90.1341
89.9126
86.9287
91.1488
86.0006
83.7378
79.9321
77.4855
73.9153
71.0348
67.6703
64.8085
61.9625
59.5358
57.3317
55.5009
53.9852
52.8286
51.9433
51.3314
51.2038
50.0165
45.9512
39.6498
33.3498
30.4672
26.2502
22.8182
18.556
14.6176
10.1679
5.91192
1.54702
-2.60832
-6.56449
-10.0801
-12.9775
-15.0113
-16.1493
-16.4126
-16.1071
-16.204
-14.6332
9.07507
6.08484
4.24396
1.8032
-0.0186121
-2.33471
-4.26474
-6.39582
-8.11901
-9.54153
-10.3736
-10.5802
-10.0642
-8.79658
-6.87708
-4.40298
-1.82815
0.894018
3.01409
6.70282
14.8224
15.8196
18.4124
20.5131
22.5766
24.2928
26.224
28.0877
30.0909
32.1558
34.3137
36.5498
38.8263
41.1274
43.3603
45.5679
47.5873
49.7657
51.5389
54.3204
33.2571
35.9829
39.5805
42.9402
45.8928
48.3956
50.8414
53.0517
55.1694
57.1326
58.9572
60.6476
62.1956
63.6306
64.9297
66.173
67.2617
68.4379
69.2758
70.5004
67.1188
69.2896
70.378
71.7179
72.7802
73.6947
74.6267
75.4096
76.1706
76.8592
77.5073
78.1311
78.7383
79.3624
79.9927
80.703
81.4021
82.2954
82.9687
84.0282
77.8546
80.3659
80.1473
81.1287
81.7476
82.5717
83.3598
84.0611
84.761
85.3854
85.9946
86.5844
87.1672
87.7605
88.3687
89.0419
89.7266
90.5699
91.181
92.0463
125.728
125.918
124.37
123.513
121.39
119.328
116.967
114.652
112.041
109.632
107.431
105.436
103.699
102.207
100.982
99.9277
99.0958
98.2825
97.8018
96.641
)
;

boundaryField
{
    outletWall
    {
        type            fixedValue;
        value           uniform 0;
    }
    fineWalls
    {
        type            zeroGradient;
    }
    fineFrontAndBack
    {
        type            zeroGradient;
    }
    fineplugLeft
    {
        type            cyclicAMI;
        value           nonuniform List<scalar> 
20
(
71.5675
72.7564
72.3433
72.7269
73.2578
74.2991
75.4846
76.8982
78.4458
80.1779
82.027
84.0243
86.1409
93.6196
93.3742
94.3845
96.0896
95.6543
93.1113
90.0025
)
;
    }
    fineplugRight
    {
        type            cyclicAMI;
        value           nonuniform List<scalar> 
20
(
79.2435
80.7023
80.4163
81.0062
81.7185
82.9616
84.341
85.9489
87.689
89.6131
91.6209
93.7859
96.1642
103.772
104.063
105.171
107.023
106.736
103.765
100.067
)
;
    }
    inletOutletLeft
    {
        type            cyclicAMI;
        value           nonuniform List<scalar> 
20
(
71.5675
72.7564
72.3433
72.7269
73.2578
74.2991
75.4846
76.8982
78.4458
80.1779
82.027
84.0243
86.1409
93.6196
93.3742
94.3845
96.0896
95.6543
93.1113
90.0025
)
;
    }
    inletLeft
    {
        type            zeroGradient;
    }
    inletWallsLeft
    {
        type            zeroGradient;
    }
    inletFacesLeft
    {
        type            zeroGradient;
    }
    inletOutletRight
    {
        type            cyclicAMI;
        value           nonuniform List<scalar> 
20
(
79.2435
80.7023
80.4163
81.0062
81.7185
82.9616
84.341
85.9489
87.689
89.6131
91.6209
93.7859
96.1642
103.772
104.063
105.171
107.023
106.736
103.765
100.067
)
;
    }
    inletRight
    {
        type            zeroGradient;
    }
    inletWallsRight
    {
        type            zeroGradient;
    }
    inletFacesRight
    {
        type            zeroGradient;
    }
}


// ************************************************************************* //
