/*--------------------------------*- C++ -*----------------------------------*\
| =========                 |                                                 |
| \\      /  F ield         | OpenFOAM: The Open Source CFD Toolbox           |
|  \\    /   O peration     | Version:  4.1                                   |
|   \\  /    A nd           | Web:      www.OpenFOAM.org                      |
|    \\/     M anipulation  |                                                 |
\*---------------------------------------------------------------------------*/
FoamFile
{
    version     2.0;
    format      ascii;
    class       surfaceScalarField;
    location    "22";
    object      phi;
}
// * * * * * * * * * * * * * * * * * * * * * * * * * * * * * * * * * * * * * //

dimensions      [0 3 -1 0 0 0 0];

internalField   nonuniform List<scalar> 
2360
(
-6860.54
-4507.82
-2352.72
-4507.82
-4507.82
-2265.03
-2242.79
-2265.03
-2265.03
-2265.03
-66.669
-2198.36
-66.6762
-66.6716
2802.3
-2868.98
2802.31
2802.3
6717.18
-3914.88
6717.18
6717.19
11366
-4648.83
11366
11366
12000.4
13604.8
15311.9
16869.1
18253.8
19502.8
16659.9
4015.03
17745.7
18763.2
19715.4
20602.2
21421.2
22168.6
22843.5
23457.1
24047.3
24674.3
25391.1
26183.7
26851.1
13391.2
13459.8
13391.2
13391.2
13391.2
3607.04
9784.19
3607.04
3607.04
3607.04
-636.585
4243.62
-636.59
-636.593
-6657.14
6020.55
-6657.14
-6657.14
-6657.14
-16751.3
10094.2
-16751.3
-16751.3
-16751.3
-28998.4
12247.1
-28329.8
-27543.8
-26834.1
-26211.2
-25620.5
-25003.3
-24324.6
-23575.2
-22756.6
-21872.2
-20923.8
-19911.3
-18831.7
-21867.7
4205.91
-20621.1
-19237.1
-17679
-15967.5
-14351.6
-13704.3
-13704.3
-13704.3
-11803.4
-1900.82
-11803.4
-11803.4
-9765.8
-2037.64
-9765.8
-9765.8
-7385.94
-2379.86
-7385.94
-7385.94
-4500
-2885.94
-4500
-4500
-4500
-1145.93
-3354.07
-1145.93
-1145.93
2941.62
-4087.55
1554.76
-1405.99
1434.86
-189.632
1522.6
2841.42
1726.45
5262.71
1851.93
5732.46
1830.81
5207.2
1413.36
4248.94
683.268
4604.76
109.591
10967.7
-338.045
12684.6
-650.293
10455
68.7682
5129.91
1171.89
-12065.9
2190.28
-17921.3
3296.33
-18740.2
5013.89
-7893.13
5676.78
11175.3
5077.33
17204.2
13099.9
2283.48
-1406.71
1964.46
129.391
1758.39
3047.49
1789.91
5231.18
1809.57
5712.8
1713.75
5303.02
1293.12
4669.57
552.804
5345.07
-56.9708
11577.5
-587.928
13215.5
-1045.5
10912.6
-75.6585
4160.07
186.472
-12328
292.721
-18027.6
1090.96
-19538.4
3548.69
-10350.9
4929.9
9794.07
4537.39
17596.7
14283.2
2678.92
-1517.1
2524.27
284.045
2275.21
3296.55
2154.61
5351.79
2061.81
5805.6
1824.85
5539.98
1262.45
5231.97
424.414
6183.1
-271.477
12273.3
-948.111
13892.1
-1592.63
11557.1
-1014.93
3582.38
-1581.29
-11761.7
-2098.15
-17510.7
-1403.5
-20233.1
1271.65
-13026
3347.13
7718.58
3594.98
17348.9
14992.3
2871.18
-1727.08
2964.6
190.62
2927.15
3334
2853.93
5425.01
2742.26
5917.26
2343.72
5938.52
1449.99
6125.71
327.13
7305.97
-514.805
13115.3
-1373.3
14750.6
-2286.66
12470.5
-2491.54
3787.25
-3740.76
-10512.4
-4568.18
-16683.3
-4001.18
-20800.1
-1476.48
-15550.7
1017.31
5224.79
2290.4
16075.8
14902.8
2836.05
-2023.6
3137.28
-110.617
3391.94
3079.34
3546.19
5270.77
3554.39
5909.06
3084.32
6408.58
1834.7
7375.32
292.601
8848.07
-776.91
14184.8
-1828.47
15802.2
-3051.35
13693.3
-4147.08
4882.99
-5930.71
-8728.82
-7099.48
-15514.5
-6868.49
-21031.1
-4482.91
-17936.3
-1302.19
2044.08
721.842
14051.7
13587
2849.15
-2375.06
3247.27
-508.739
3666.61
2660.01
4036.38
4901
4175.76
5769.68
3687.24
6897.09
2205.85
8856.71
282.718
10771.2
-1050.22
15517.7
-2281.09
17033.1
-3823.88
15236.1
-5762.37
6821.48
-7995.37
-6495.81
-9503.46
-14006.4
-9751.64
-20782.9
-7790.45
-19897.5
-3918.1
-1828.28
-1249.21
11382.9
10437
3010.08
-2740.12
3454.06
-952.723
3900.6
2213.47
4304.01
4497.6
4415.11
5658.57
3867.2
7445.01
2314.5
10409.4
192.507
12893.2
-1345.52
17055.8
-2708.69
18396.2
-4515.69
17043.1
-7141.22
9447.01
-9647.58
-3989.45
-11238.3
-12415.7
-12041.7
-19979.5
-11044
-20895.1
-6494.71
-6377.59
-2791.09
7679.24
11851.8
3032.97
-3063.82
3481.63
-1401.39
3892.99
1802.12
4172.21
4218.37
4126.01
5704.78
3518.89
8052.13
2047.43
11880.9
-64.5528
15005.2
-1680.92
18672.1
-3098.03
19813.4
-5044.19
18989.3
-8014.31
12417.1
-10270.3
-1733.46
-11464.4
-11221.6
-13007.5
-18436.4
-14053.5
-19849.1
-11084.5
-9346.63
-9029.33
5624.1
15069.5
2735.16
-3304.82
3126.75
-1792.97
3450.91
1477.95
3583.52
4085.76
3426.07
5862.23
2811.64
8666.56
1459.4
13233.1
-517.106
16981.7
-2066.58
20221.6
-3448.8
21195.6
-5358.16
20898.6
-8015.42
15074.4
-9070.01
-678.865
-9456.33
-10835.3
-12148.2
-15744.6
-15909.5
-16087.8
-16423.3
-8832.81
-14129.1
3329.93
11034.6
2125.43
-3435.67
2444.17
-2111.71
2725.46
1196.66
2859.36
3951.86
2690.09
6031.5
1981.58
9375.07
632.721
14582
-1153.3
18767.7
-2503.82
21572.1
-3778.38
22470.1
-5504.85
22625.1
-7302.38
16871.9
-6517.78
-1463.46
-5969.51
-11383.6
-9805.19
-11908.9
-14767.7
-11125.3
-15550.3
-8050.15
-12631.7
411.357
4423.37
1202.56
-3456.83
1494.05
-2403.19
2018
672.717
2333.72
3636.13
1969.34
6395.89
919.605
10424.8
-465.16
15966.7
-1932.66
20235.2
-2984.62
22624.1
-4113
23598.5
-5595.54
24107.6
-6573.43
17849.8
-4768.17
-3268.72
-3651.92
-12499.8
-7632.5
-7928.3
-13397.6
-5360.27
-14512.1
-6935.65
-10977.7
-3122.97
-2310.75
-54.9304
-3437.71
464.059
-2922.18
1115.71
21.062
1249.7
3502.14
510.967
7134.63
-702.279
11638
-1810.72
17075.2
-2762.8
21187.3
-3489.57
23350.8
-4466.68
24575.6
-5691.1
25332.1
-6070.61
18229.3
-4127.84
-5211.49
-2943.32
-13684.3
-5050.27
-5821.35
-9602.88
-807.667
-13387.9
-3150.58
-13902.1
-2608.83
-6428.64
-1624.52
-3282.13
-1953.47
-2593.24
-1690.78
-241.631
-1499.16
3310.53
-1922.06
7557.52
-2607.11
12323.1
-3127.55
17595.6
-3535.33
21595.1
-3999.52
23815
-4842.2
25418.3
-5786.67
26276.5
-5510.19
17952.8
-3420.31
-7301.38
-2487.19
-14617.4
-1671.75
-6636.78
-1544.91
-934.506
-4614.38
-81.1161
-9432.96
2209.75
-2401.77
-2960.92
-3095.25
-3480.28
-2073.87
-3765.07
43.1589
-3855.39
3400.84
-3965.34
7667.47
-4133.35
12491.1
-4166.44
17628.7
-4200.03
21628.7
-4508.05
24123.1
-5244.59
26154.8
-5897.49
26929.4
-4931.93
16987.3
-2735.8
-9497.51
-2192.34
-15160.9
-1798.09
-7031.03
-485.267
-2247.33
1350.43
-1916.81
2049.51
1510.67
3662.78
-4145.4
-2973.45
-4557.83
-1661.44
-4917.52
402.856
-5122.88
3606.2
-5171.97
7716.56
-5117.74
12436.9
-4913.1
17424.1
-4783.43
21499
-5034.9
24374.5
-5689.57
26809.5
-6023.63
27263.5
-4363.46
15327.1
-2342.8
-11518.2
-1983.42
-15520.3
-1450.85
-7563.59
-25.3467
-3672.84
1538.26
-3480.42
3430.35
-381.413
2444.3
-5265.75
-2972.84
-5473.53
-1453.66
-5709.5
638.825
-5859.69
3756.39
-5879.54
7736.4
-5758.61
12316
-5493.66
17159.1
-5339.99
21345.3
-5590.22
24624.7
-6180.1
27399.4
-6167.15
27250.5
-3780.44
12940.4
-2126.84
-13171.8
-1908.25
-15738.9
-1157.19
-8314.66
135.631
-4965.66
1250.13
-4594.92
2764.93
-1896.21
1294.35
-6391.53
-3152.69
-6332.26
-1512.93
-6404.99
711.557
-6438.78
3790.18
-6402.4
7700.02
-6257.79
12171.3
-6014.09
16915.4
-5910.48
21241.7
-6208.41
24922.7
-6748.25
27939.2
-6305.39
26807.7
-3211.67
9846.67
-1875.96
-14507.5
-1760.36
-15854.5
-847.121
-9227.9
253.04
-6065.82
1394.59
-5736.47
2432.66
-2934.28
858.035
-7605.53
-3568.63
-7227.78
-1890.68
-7149.45
633.223
-7052.93
3693.67
-6941.64
7588.73
-6781.46
12011.2
-6577.86
16711.8
-6533.38
21197.2
-6878.11
25267.4
-7353.39
28414.5
-6438.53
25892.8
-2887.71
6295.85
-1685.17
-15710
-1516.43
-16023.2
-629.547
-10114.8
360.284
-7055.65
1408.63
-6784.81
2099.65
-3625.3
759.324
-8921.38
-4207.05
-8039.24
-2772.82
-7717.47
311.45
-7580.39
3556.58
-7399.52
7407.86
-7209.01
11820.6
-7029.18
16532
-7074.24
21242.3
-7569.99
25763.2
-7983.18
28827.7
-6344.05
24253.7
-2671.12
2622.92
-1670.51
-16710.6
-1274.73
-16419
-505.66
-10883.9
423.426
-7984.74
1365.86
-7727.25
1974.77
-4234.22
491.31
-10225.3
-9287.46
-8716.21
-8485.63
-8252.1
-8061.97
-7978.52
-8176.6
-8676.35
-8535.7
-5917.13
-2401.78
-1645.36
-1144.13
-451.056
443.923
1300.1
1948.12
-16.6206
-617.711
213.387
-1834.47
434.38
-1928.09
598.491
-1721.28
725.252
-1511.5
828.123
-1351.83
883.769
-1227.74
928.145
-1130.15
954.026
-1043.42
961.795
-959.989
952.965
-877.913
930.356
-796.358
897.488
-714.541
855.753
-633.191
801.235
-559.074
722.331
-511.25
606.366
-511.015
445.564
-556.088
246.844
-593.823
-420.528
-37.3241
-580.38
-64.3742
-1807.42
-17.1265
-1975.34
36.7475
-1775.15
91.1348
-1565.88
145.45
-1406.14
207.518
-1289.81
268.261
-1190.88
325.714
-1100.87
379.948
-1014.22
431.819
-929.779
482.677
-847.209
534.306
-766.165
586.572
-685.452
632.762
-605.261
650.576
-529.059
607.22
-467.658
471.727
-420.594
254.771
-376.866
-165.757
-148.113
-432.26
-194.591
-1760.94
-105.84
-2064.08
2.86505
-1883.85
100.237
-1663.24
189.124
-1495.02
272.13
-1372.81
349.863
-1268.61
419.307
-1170.31
477.395
-1072.3
521.814
-974.194
551.453
-876.841
566.716
-781.424
569.373
-688.104
560.949
-596.833
536.891
-504.998
483.415
-414.179
379.238
-316.415
204.8
-202.423
39.0432
-14.7514
-417.502
-50.1002
-1725.59
-2.13124
-2112.05
73.7941
-1959.77
151.338
-1740.78
230.5
-1574.18
311.021
-1453.32
388.688
-1346.27
458.852
-1240.47
517.302
-1130.74
560.812
-1017.7
586.958
-902.983
594.173
-788.636
581.632
-675.559
549.348
-564.545
497.049
-452.696
421.695
-338.823
313.771
-208.487
162.363
-51.0089
201.406
349.265
-766.761
481.423
-1857.74
497.876
-2128.5
511.097
-1972.99
555.645
-1785.33
624.592
-1643.12
705.423
-1534.15
784.514
-1425.36
853.279
-1309.23
905.589
-1183.05
938.855
-1050.96
950.881
-915.006
939.304
-777.057
901.168
-637.42
833.366
-496.74
732.925
-352.252
597.872
-203.767
417.743
-28.3549
209.89
156.848
411.296
568.39
-1335.15
808.271
-2097.62
759.75
-2079.98
687.582
-1900.82
682.998
-1780.74
722.02
-1682.14
779.639
-1591.77
830.615
-1476.33
864.265
-1342.88
875.3
-1194.08
864.946
-1040.61
831.642
-881.702
772.078
-717.492
681.962
-547.303
558.101
-372.879
404.403
-198.553
244.804
-44.1659
109.73
106.722
-7.72188
274.303
403.574
364.027
-1699.18
380.48
-2114.07
215.277
-1914.77
82.0064
-1767.55
2.17179
-1700.91
-56.7524
-1623.22
-112.035
-1536.48
-179.232
-1409.14
-261.424
-1260.68
-355.953
-1099.56
-457.748
-938.812
-565.003
-774.445
-676.089
-606.403
-786.344
-437.046
-884.399
-274.82
-950.719
-132.231
-956.841
-38.0418
-842.093
-8.02293
-531.62
-36.1653
-128.046
-24.9434
-1674.24
-179.878
-1959.14
-341.656
-1753
-490.356
-1618.86
-643.525
-1547.74
-809.143
-1457.61
-983.293
-1362.34
-1162.26
-1230.17
-1342.54
-1080.41
-1522.11
-919.985
-1700.28
-760.648
-1871.6
-603.128
-2021.54
-456.463
-2122.11
-336.474
-2128.86
-268.068
-1986.49
-274.603
-1660.03
-364.493
-1144.61
-523.446
-496.762
-684.011
-624.807
-186.886
-1487.35
-246.727
-1899.3
-296.697
-1703.03
-403.113
-1512.44
-535.783
-1415.07
-690.572
-1302.81
-848.136
-1204.77
-993.232
-1085.07
-1112.25
-961.384
-1201.65
-830.59
-1259.81
-702.484
-1282.39
-580.546
-1262.15
-476.699
-1189.09
-409.531
-1053.22
-403.938
-844.384
-483.433
-569.556
-639.32
-278.046
-814.954
-70.4569
-891.597
-695.264
-46.5505
-1440.8
10.2008
-1956.05
67.9066
-1760.73
93.1116
-1537.64
108.051
-1430.01
113.328
-1308.09
118.401
-1209.84
135.596
-1102.27
176.25
-1002.04
247.905
-902.247
352.049
-806.63
486.895
-715.393
642.151
-631.956
795.681
-563.063
910.287
-518.545
937.767
-510.913
837.772
-539.326
606.586
-583.769
297.233
-582.245
-398.031
53.7499
-1494.55
104.747
-2007.05
157.755
-1813.74
212.186
-1592.07
271.464
-1489.29
333.191
-1369.82
397.087
-1273.74
465.048
-1170.23
537.336
-1074.33
616.27
-981.179
701.129
-891.49
790.101
-804.364
877.256
-719.111
949.946
-635.752
987.305
-555.906
959.641
-483.249
842.69
-422.376
623.927
-365.008
328.98
-287.3
-69.0518
139.476
-1634.03
178.854
-2046.43
216.54
-1851.43
267.124
-1642.66
330.142
-1552.31
389.731
-1429.41
451.904
-1335.92
512.399
-1230.73
572.146
-1134.08
627.706
-1036.74
676.827
-940.614
716.336
-843.877
743.184
-745.962
753.565
-646.137
742.177
-544.521
698.514
-439.589
608.207
-332.072
453.394
-210.199
234.841
-68.7539
165.79
191.56
-1825.59
198.475
-2053.34
231.033
-1883.99
283.574
-1695.2
352.281
-1621.02
416.287
-1493.42
487.647
-1407.28
560.018
-1303.1
638.353
-1212.41
717.511
-1115.9
792.484
-1015.59
852.264
-903.658
885.106
-778.805
881.909
-642.941
838.859
-501.473
753.737
-354.469
626.077
-204.414
446.959
-31.0849
225.603
152.598
391.392
170.972
-1996.56
132.191
-2014.56
155.833
-1907.63
197.056
-1736.43
252.561
-1676.53
307.988
-1548.85
375.941
-1475.24
450.215
-1377.37
536.195
-1298.4
625.819
-1205.53
709.137
-1098.91
765.239
-959.763
777.246
-790.815
742.535
-608.234
667.507
-426.448
548.102
-235.069
378.2
-34.5172
243.095
104.013
107.247
288.441
498.639
55.7946
-2052.36
-24.3439
-1934.43
-48.1412
-1883.84
-65.5914
-1718.98
-78.7384
-1663.38
-86.8046
-1540.78
-89.6034
-1472.44
-84.6269
-1382.35
-73.0785
-1309.95
-59.4637
-1219.15
-55.2916
-1103.09
-73.693
-941.367
-113.63
-750.884
-156.472
-565.398
-188.959
-393.968
-211.896
-212.145
-195.952
-50.476
-221.197
129.25
-223.879
291.117
274.76
-37.7855
-2014.58
-114.121
-1858.1
-172.932
-1825.03
-234.728
-1657.19
-300.6
-1597.51
-363.713
-1477.67
-433.994
-1402.16
-504.306
-1312.05
-580.46
-1233.8
-657.966
-1141.64
-734.632
-1026.42
-799.22
-876.781
-837.272
-712.833
-839.984
-562.689
-813.452
-420.502
-767.855
-257.744
-732.453
-85.8783
-594.764
-8.43971
-464.409
160.761
-189.649
-51.0861
-1963.49
-123.214
-1785.97
-179.949
-1768.3
-234.779
-1602.36
-290.912
-1541.38
-341.223
-1427.36
-396.018
-1347.37
-450.477
-1257.59
-507.332
-1176.94
-557.42
-1091.56
-585.317
-998.526
-569.331
-892.769
-501.43
-780.736
-394.161
-669.959
-259.823
-554.842
-97.6272
-419.942
66.8268
-250.343
54.9238
3.45213
98.4515
117.228
-91.1973
-128.608
-1834.88
-291.729
-1622.85
-413.994
-1646.03
-501.455
-1514.9
-578.282
-1464.55
-627.748
-1377.9
-665.241
-1309.87
-686.17
-1236.66
-694.457
-1168.66
-684.954
-1101.06
-649.445
-1034.04
-578.11
-964.105
-470.141
-888.706
-334.343
-805.759
-177.122
-712.065
-1.63551
-595.43
176.619
-428.6
354.393
-174.324
356.581
115.038
265.384
-185.051
-1649.84
-415.501
-1392.4
-660.071
-1401.46
-859.702
-1315.27
-1049.12
-1275.14
-1203.61
-1223.41
-1333.63
-1179.86
-1434.34
-1135.95
-1508.94
-1094.06
-1557.27
-1052.73
-1579.65
-1011.66
-1574.32
-969.436
-1538.41
-924.61
-1468.67
-875.505
-1361.59
-819.14
-1207.67
-749.354
-986.413
-649.855
-675.387
-485.351
-313.744
-246.606
-48.3603
-674.836
-1092.24
-1518.7
-1858.97
-2159.11
-2407.52
-2612.38
-2773.33
-2892.39
-2970.12
-3006.78
-3001.22
-2950.83
-2851.33
-2695.47
-2469.83
-2144.68
-1655.03
-926.64
-674.851
1649.85
-1092.27
1392.42
-1518.75
1401.48
-1859.04
1315.29
-2159.21
1275.16
-2407.64
1223.43
-2612.53
1179.89
-2773.51
1135.98
-2892.59
1094.08
-2970.35
1052.76
-3007.03
1011.68
-3001.48
969.451
-2951.1
924.623
-2851.63
875.52
-2695.79
819.16
-2470.15
749.367
-2144.97
649.817
-1655.19
485.215
-926.63
246.444
48.3702
-185.062
1834.91
-415.514
1622.87
-660.09
1646.05
-859.719
1514.92
-1049.13
1464.57
-1203.61
1377.91
-1333.61
1309.88
-1434.3
1236.66
-1508.87
1168.66
-1557.17
1101.06
-1579.53
1034.04
-1574.2
964.118
-1538.31
888.736
-1468.6
805.812
-1361.58
712.141
-1207.72
595.501
-986.49
428.589
-675.467
174.191
-313.921
-115.103
-265.551
-128.553
1963.46
-291.609
1785.92
-413.811
1768.25
-501.189
1602.3
-577.933
1541.31
-627.302
1427.28
-664.688
1347.27
-685.499
1257.47
-693.661
1176.82
-684.033
1091.43
-648.426
998.428
-577.059
892.749
-469.15
780.826
-333.472
670.133
-176.399
555.066
-1.15826
420.258
176.665
250.763
354.608
-3.75412
356.326
-116.822
90.7748
-50.9748
2014.44
-123.016
1857.96
-179.647
1824.88
-234.374
1657.02
-290.397
1597.33
-340.598
1477.48
-395.278
1401.95
-449.621
1311.82
-506.351
1233.55
-556.291
1141.37
-583.997
1026.13
-567.801
876.552
-499.729
712.753
-392.342
562.745
-257.851
420.574
-95.3539
257.759
69.4508
85.9528
54.8502
10.8399
98.701
-160.676
189.476
-37.89
2052.32
-114.229
1934.3
-173.092
1883.75
-234.971
1718.9
-300.932
1663.29
-364.164
1540.71
-434.587
1472.37
-505.07
1382.3
-581.422
1309.9
-659.138
1219.08
-735.983
1102.98
-800.642
941.21
-838.64
750.749
-841.24
565.344
-814.634
393.967
-768.899
212.022
-732.867
49.9195
-592.872
-129.156
-462.95
-290.599
-273.475
55.5497
1996.77
-24.6701
2014.52
-48.6036
1907.68
-66.2135
1736.51
-79.5388
1676.62
-87.7855
1548.95
-90.7858
1475.37
-86.0172
1377.53
-74.6974
1298.58
-61.3046
1205.69
-57.3239
1099
-75.8232
959.708
-115.72
790.645
-158.42
608.043
-190.694
426.239
-213.475
234.802
-198.209
34.6508
-223.437
-103.929
-225.21
-288.828
-498.685
170.893
1825.88
131.992
2053.42
155.558
1884.11
196.706
1695.36
252.128
1621.2
307.483
1493.6
375.368
1407.48
449.583
1303.31
535.504
1212.65
625.051
1116.14
708.238
1015.81
764.13
903.815
775.901
778.873
741.032
642.912
665.916
501.354
546.46
354.257
377.002
204.107
242.503
30.5681
106.798
-153.124
-391.887
191.696
1634.18
198.536
2046.58
231.065
1851.58
283.603
1642.82
352.318
1552.48
416.335
1429.58
487.721
1336.1
560.126
1230.91
638.511
1134.27
717.725
1036.93
792.75
940.783
852.552
844.013
885.38
746.045
882.14
646.152
839.036
544.457
753.852
439.441
626.126
331.832
446.872
209.821
225.504
68.2425
-166.383
139.681
1494.5
179.014
2007.25
216.652
1813.94
267.216
1592.26
330.238
1489.46
389.819
1370
451.991
1273.92
512.485
1170.41
572.246
1074.51
627.825
981.348
676.96
891.647
716.463
804.508
743.267
719.241
753.558
635.859
742.046
555.969
698.268
483.217
607.914
422.186
453.131
364.603
234.689
286.683
68.3055
54.0098
1440.49
104.993
1956.26
157.974
1760.96
212.431
1537.8
271.77
1430.12
333.559
1308.21
397.513
1209.97
465.495
1102.43
537.737
1002.27
616.508
902.578
701.101
807.054
789.719
715.891
876.51
632.449
948.968
563.401
986.289
518.648
958.768
510.738
842.05
538.904
623.565
583.087
328.841
581.406
397.146
-46.2444
1486.74
10.6051
1899.41
68.4572
1703.11
93.9069
1512.35
109.131
1414.9
114.744
1302.6
120.166
1204.55
137.7
1084.9
178.652
961.313
250.577
830.652
354.997
702.634
490.134
580.754
645.66
476.923
799.298
409.763
913.662
404.284
940.478
483.921
839.589
639.793
607.596
815.08
297.71
891.292
694.856
-186.671
1673.41
-246.009
1958.75
-295.458
1752.56
-401.388
1618.28
-533.583
1547.09
-687.87
1456.89
-844.887
1361.57
-989.372
1229.39
-1107.7
1079.64
-1196.3
919.249
-1253.58
759.916
-1275.23
602.409
-1254.14
455.835
-1180.52
336.144
-1044.53
268.294
-836.159
275.553
-562.587
366.222
-273.343
525.838
-68.613
686.563
626.244
-25.3473
1698.76
-180.229
2113.64
-341.944
1914.28
-490.68
1767.02
-643.973
1700.39
-809.794
1622.71
-984.176
1535.95
-1163.34
1408.55
-1343.75
1260.06
-1523.42
1098.91
-1701.65
938.15
-1872.97
773.735
-2022.84
605.697
-2123.15
436.462
-2129.32
274.459
-1986.05
132.285
-1658.65
38.8218
-1142.59
9.77965
-495.26
39.2358
130.983
364.13
1334.63
380.728
2097.04
215.354
2079.65
81.6848
1900.69
1.41729
1780.66
-57.9479
1682.08
-113.689
1591.69
-181.363
1476.23
-264.041
1342.74
-359.043
1193.92
-461.321
1040.43
-569.065
881.482
-680.637
717.272
-791.335
547.163
-889.704
372.831
-956.052
198.636
-961.626
44.3981
-845.324
-106.52
-532.585
-273.501
-401.602
570.23
764.401
811.724
1855.55
763.295
2128.08
690.573
1973.42
685.454
1785.78
724.018
1643.51
781.18
1534.53
831.649
1425.76
864.745
1309.64
875.19
1183.47
864.232
1051.39
830.298
915.416
770.125
777.446
679.511
637.778
555.325
497.018
401.556
352.407
242.193
203.763
107.465
28.2111
-9.18299
-156.849
-410.785
352.848
411.555
486.522
1721.87
502.542
2112.06
514.965
1960.99
558.943
1741.8
627.495
1574.96
707.982
1454.05
786.714
1347.03
855.088
1241.27
906.983
1131.58
939.845
1018.53
951.497
903.765
939.62
789.324
901.286
676.114
833.374
564.931
732.869
452.913
597.764
338.869
417.539
208.437
209.832
50.8589
-200.952
-11.9116
423.468
-47.1635
1757.13
0.347799
2064.55
75.8813
1885.46
153.089
1664.59
231.934
1496.12
312.118
1373.86
389.403
1269.75
459.161
1171.51
517.222
1073.52
560.381
975.372
586.214
877.933
593.141
782.398
580.313
688.942
547.669
597.577
494.937
505.645
419.334
414.473
311.774
315.999
161.45
201.185
-39.5023
-146.104
569.573
-193.446
1804.47
-106.674
1977.78
0.573589
1778.21
96.783
1568.38
184.637
1408.27
266.804
1291.7
344.02
1192.53
413.24
1102.29
471.323
1015.44
515.861
930.834
545.65
848.144
560.923
767.126
563.151
686.715
553.801
606.928
528.923
530.523
475.7
467.697
373.503
418.196
202.035
372.654
162.533
-36.7987
606.372
-65.0844
1832.76
-16.1823
1928.88
40.0757
1721.96
96.793
1511.67
153.09
1351.97
216.566
1228.22
277.58
1131.52
334.525
1045.35
387.516
962.446
437.373
880.979
485.32
800.198
533.143
719.303
581.134
638.724
623.749
564.314
640.249
514.023
598.705
509.241
467.042
549.859
253.756
585.94
416.289
-40.9496
175.884
393.286
557.14
684.796
790.151
848.446
900.416
933.279
947.28
943.859
925.466
895.369
855.365
802.543
725.853
612.19
452.304
252.222
)
;

boundaryField
{
    outletWall
    {
        type            calculated;
        value           nonuniform List<scalar> 
60
(
2941.62
-12110.2
-16604.7
-11838.2
6175.57
17634.1
16902.9
10962.8
-5848.97
-10142.8
-12236.9
-10394
-3874.66
-3831.5
-5186.07
-5857.95
-5466.55
-2929.16
309.531
1446.37
10706.9
9559.8
8021.48
6571.37
5265.14
4023.6
2774.04
1468.94
35.8051
-1181.4
-1994.58
-2494.16
-2709.28
-2645.02
-2497.69
-2539.52
-2661.19
-2568.54
-2282.76
-1595.15
6860.54
86.7038
-4882.23
-8583.43
-8879.72
-11576.9
-16920.2
-17467
-892.427
21635.1
28687
26262.9
21440.4
16448.5
11630.5
7174.33
3326
-259.796
-3710.68
-4688.66
)
;
    }
    fineWalls
    {
        type            calculated;
        value           uniform 0;
    }
    fineFrontAndBack
    {
        type            calculated;
        value           nonuniform List<scalar> 
960
(
-2.9253e-12
-1.09746e-11
-2.05026e-12
-2.00418e-12
-1.15159e-11
-2.14755e-12
-2.31684e-12
-2.61039e-12
-2.07412e-11
-6.19939e-12
-9.26691e-12
-1.188e-11
2.82399e-13
-2.02005e-13
-3.65915e-13
2.41678e-13
-5.11819e-13
-5.59622e-12
-2.21192e-12
-3.87999e-12
-7.05279e-13
-9.31984e-13
-7.66898e-13
-6.17071e-13
-4.53427e-13
-4.26787e-13
-4.88825e-13
-2.83571e-13
-2.02946e-13
-1.31675e-13
-4.69467e-14
9.39243e-14
2.67317e-13
4.49408e-13
5.71887e-13
5.6327e-13
3.76936e-13
1.66351e-13
8.62458e-14
-9.14959e-14
5.74825e-12
6.0826e-13
-2.52269e-13
-1.44117e-12
-5.00799e-12
-3.15866e-13
-5.05585e-13
-1.62787e-12
1.24171e-11
-1.76561e-12
4.60743e-12
1.99478e-11
4.20576e-12
4.05986e-12
3.68791e-12
1.71671e-11
1.61308e-12
4.42044e-13
-2.98035e-13
-6.61476e-13
4.07751e-13
2.55236e-13
2.78108e-13
9.86636e-14
-4.70153e-14
-7.00931e-14
7.40465e-15
1.53404e-13
3.19348e-13
4.08441e-13
4.39095e-13
5.09613e-13
5.48581e-13
4.80663e-12
5.70061e-13
4.46057e-13
3.91662e-13
2.65012e-13
1.19036e-13
-3.52261e-13
-2.25419e-12
-3.05953e-12
-2.0908e-11
-3.53815e-12
-3.46666e-12
-1.25598e-11
-4.73234e-14
1.72824e-12
1.51999e-11
2.34802e-12
3.28001e-14
-1.63158e-11
-3.61848e-12
-3.97446e-12
-3.97262e-12
-1.57958e-11
-2.67773e-13
-1.88023e-12
-2.44175e-11
-7.24847e-12
1.30018e-11
1.30046e-11
1.24933e-11
1.21861e-11
1.27099e-11
8.68498e-12
-2.96466e-12
-1.46066e-11
-1.55831e-11
-1.4506e-11
-1.34817e-11
-1.11112e-11
-1.42107e-11
-8.50384e-12
9.09872e-13
4.68722e-12
-1.51341e-11
-2.73817e-11
-3.38037e-11
1.3194e-11
1.3258e-11
1.27864e-11
1.2289e-11
1.27622e-11
9.87688e-12
-9.42837e-13
-1.38073e-11
-1.56263e-11
-1.44991e-11
-1.3375e-11
-1.11735e-11
-7.99813e-12
1.2861e-11
2.57757e-11
2.46558e-11
-1.13922e-12
-2.27122e-11
-3.26151e-11
1.31835e-11
1.31692e-11
1.30168e-11
1.26087e-11
1.27705e-11
1.13214e-11
1.85767e-12
-1.27395e-11
-1.56589e-11
-1.44779e-11
-1.33242e-11
-1.09434e-11
6.39299e-12
3.20906e-11
3.71369e-11
2.76692e-11
1.56258e-11
-1.30637e-11
-3.14736e-11
1.30329e-11
1.31289e-11
1.32207e-11
1.30927e-11
1.27833e-11
1.19961e-11
4.52862e-12
-1.1297e-11
-1.56602e-11
-1.44554e-11
-1.34348e-11
-7.99013e-12
2.64665e-11
4.87604e-11
4.61937e-11
2.98786e-11
2.005e-11
-6.41525e-12
-3.2115e-11
1.10327e-11
1.14342e-11
1.29752e-11
1.35554e-11
1.26323e-11
1.12187e-11
5.56264e-12
-9.84742e-12
-1.56212e-11
-1.44679e-11
-1.35263e-11
-1.37052e-12
4.66847e-11
6.37623e-11
5.65289e-11
3.26759e-11
4.27568e-12
-3.04066e-12
-2.99597e-11
6.84923e-12
6.6273e-12
1.00287e-11
1.18807e-11
1.05128e-11
8.36834e-12
4.41302e-12
-9.06381e-12
-1.55544e-11
-1.45418e-11
-1.34186e-11
6.89041e-12
6.26667e-11
7.24899e-11
6.24813e-11
3.77358e-11
-3.56524e-13
-5.31834e-13
-2.5793e-11
2.01048e-12
6.59558e-13
3.27585e-12
5.4012e-12
4.48283e-12
3.25146e-12
1.21943e-12
-9.34616e-12
-1.54944e-11
-1.46489e-11
-1.30302e-11
1.33839e-11
6.64685e-11
6.43382e-11
5.44578e-11
4.01555e-11
8.78055e-13
-1.59023e-11
-2.00211e-11
-2.95531e-12
-5.61225e-12
-5.29945e-12
-4.02102e-12
-3.47274e-12
-2.12416e-12
-1.12173e-12
-1.02711e-11
-1.54422e-11
-1.47368e-11
-1.26288e-11
1.45544e-11
5.02586e-11
3.21145e-11
2.62931e-11
3.377e-11
1.67562e-11
-2.11719e-11
-1.38636e-11
-7.95001e-12
-1.11452e-11
-1.22349e-11
-1.11365e-11
-8.4965e-12
-5.0098e-12
-6.51787e-12
-1.18077e-11
-1.53819e-11
-1.47488e-11
-1.16417e-11
1.23154e-11
2.041e-11
-9.86554e-12
-1.08447e-11
1.28971e-11
3.43614e-11
2.39826e-11
1.96281e-11
-1.15237e-11
-1.3831e-11
-1.42228e-11
-1.17503e-11
-8.64979e-12
-6.53069e-12
-1.11565e-13
-1.31105e-11
-1.52561e-11
-1.45364e-11
-1.17122e-11
3.89724e-12
5.20063e-13
-2.40226e-11
-2.81843e-11
-1.43293e-11
2.0635e-11
3.927e-11
3.24047e-11
-1.30853e-11
-1.36173e-11
-1.0485e-11
-6.62666e-12
-5.98507e-12
-6.34905e-12
-4.01994e-12
-1.4302e-11
-1.50191e-11
-1.42912e-11
-1.26606e-11
-2.74025e-12
-9.95689e-13
-8.40838e-12
-1.64004e-11
-3.08031e-11
-7.7268e-12
2.94949e-11
4.20449e-11
-1.34294e-11
-1.2449e-11
-2.75659e-12
2.21381e-13
-2.50196e-12
-4.92559e-12
-8.05419e-12
-1.51008e-11
-1.46684e-11
-1.41878e-11
-1.40633e-11
-7.36675e-12
-2.5903e-12
-4.3992e-12
-9.53355e-12
-2.97965e-11
-3.33911e-11
-2.34792e-11
-1.11393e-11
-1.32154e-11
-1.27562e-11
-3.13152e-12
2.22954e-12
-9.87868e-13
-5.61121e-12
-1.06011e-11
-1.529e-11
-1.42429e-11
-1.42971e-11
-1.56606e-11
-1.14032e-11
-5.41667e-12
-4.57515e-12
-6.88804e-12
-4.41954e-12
-3.88699e-12
-8.83334e-13
7.63655e-12
-1.25925e-11
-1.44875e-11
-1.04127e-11
-4.72438e-12
-5.11065e-12
-9.42255e-12
-1.35187e-11
-1.47906e-11
-1.37856e-11
-1.45773e-11
-1.7349e-11
-1.50282e-11
-7.16378e-12
-4.6818e-12
-6.7551e-12
-6.90968e-12
-8.85472e-12
-1.27446e-11
7.0419e-12
-1.16436e-11
-1.43126e-11
-1.57909e-11
-1.28339e-11
-1.14504e-11
-1.31478e-11
-1.46994e-11
-1.38011e-11
-1.33462e-11
-1.50293e-11
-1.91679e-11
-1.8072e-11
-6.94779e-12
-6.16039e-12
-6.39987e-12
-6.30317e-12
-8.94959e-12
-1.9285e-11
3.06194e-12
-1.10259e-11
-1.16618e-11
-1.54839e-11
-1.56134e-11
-1.45973e-11
-1.42077e-11
-1.38264e-11
-1.26674e-11
-1.30607e-11
-1.58826e-11
-2.12795e-11
-1.97336e-11
-3.52345e-12
-6.79543e-12
-6.65535e-12
-6.08235e-12
-9.38436e-12
-1.29122e-11
-7.64248e-12
-1.16171e-11
-8.88846e-12
-1.18447e-11
-1.35054e-11
-1.35537e-11
-1.28148e-11
-1.20449e-11
-1.17374e-11
-1.32383e-11
-1.75147e-11
-2.34275e-11
-1.92125e-11
-5.9168e-13
-6.54372e-12
-6.83652e-12
-5.90764e-12
-9.54898e-12
-1.28877e-11
-1.20519e-11
-1.36495e-11
-8.57238e-12
-8.64495e-12
-1.03479e-11
-1.10191e-11
-1.09282e-11
-1.07835e-11
-1.15796e-11
-1.43224e-11
-1.9756e-11
-2.43715e-11
-1.61356e-11
-6.16714e-13
-6.29184e-12
-6.95914e-12
-5.85867e-12
-9.83145e-12
-1.35209e-11
-9.02074e-12
-1.62876e-11
-1.2045e-11
-7.29023e-12
-7.68104e-12
-8.27803e-12
-8.79098e-12
-9.5708e-12
-1.16137e-11
-1.59777e-11
-2.2124e-11
-2.35954e-11
-1.10709e-11
-1.48142e-12
-6.1736e-12
-7.03976e-12
-5.8344e-12
-1.01581e-11
-1.36151e-11
-1.32766e-11
-1.76792e-11
-1.86659e-11
-1.33587e-11
-1.1022e-11
-1.04931e-11
-1.08774e-11
-1.24738e-11
-1.56744e-11
-2.01294e-11
-2.27346e-11
-1.76649e-11
-3.88566e-12
-1.63062e-12
-6.07663e-12
-7.09166e-12
-5.82984e-12
-1.04155e-11
-1.40184e-11
-1.42954e-11
2.9253e-12
1.09746e-11
2.05026e-12
2.00418e-12
1.15159e-11
2.14755e-12
2.31684e-12
2.61039e-12
2.07412e-11
6.19939e-12
9.26691e-12
1.188e-11
-2.82399e-13
2.02005e-13
3.65915e-13
-2.41678e-13
5.11819e-13
5.59622e-12
2.21192e-12
3.87999e-12
7.05279e-13
9.31984e-13
7.66898e-13
6.17071e-13
4.53427e-13
4.26787e-13
4.88825e-13
2.83571e-13
2.02946e-13
1.31675e-13
4.69467e-14
-9.39243e-14
-2.67317e-13
-4.49408e-13
-5.71887e-13
-5.6327e-13
-3.76936e-13
-1.66351e-13
-8.62458e-14
9.14959e-14
-5.74825e-12
-6.0826e-13
2.52269e-13
1.44117e-12
5.00799e-12
3.15866e-13
5.05585e-13
1.62787e-12
-1.24171e-11
1.76561e-12
-4.60743e-12
-1.99478e-11
-4.20576e-12
-4.05986e-12
-3.68791e-12
-1.71671e-11
-1.61308e-12
-4.42044e-13
2.98035e-13
6.61476e-13
-4.07751e-13
-2.55236e-13
-2.78108e-13
-9.86636e-14
4.70153e-14
7.00931e-14
-7.40465e-15
-1.53404e-13
-3.19348e-13
-4.08441e-13
-4.39095e-13
-5.09613e-13
-5.48581e-13
-4.80663e-12
-5.70061e-13
-4.46057e-13
-3.91662e-13
-2.65012e-13
-1.19036e-13
3.52261e-13
2.25419e-12
3.05953e-12
2.0908e-11
3.53815e-12
3.46666e-12
1.25598e-11
4.73234e-14
-1.72824e-12
-1.51999e-11
-2.34802e-12
-3.28001e-14
1.63158e-11
3.61848e-12
3.97446e-12
3.97262e-12
1.57958e-11
2.67773e-13
1.88023e-12
2.44175e-11
7.24847e-12
-1.30018e-11
-1.30046e-11
-1.24933e-11
-1.21861e-11
-1.27099e-11
-8.68498e-12
2.96466e-12
1.46066e-11
1.55831e-11
1.4506e-11
1.34817e-11
1.11112e-11
1.42107e-11
8.50384e-12
-9.09872e-13
-4.68722e-12
1.51341e-11
2.73817e-11
3.38037e-11
-1.3194e-11
-1.3258e-11
-1.27864e-11
-1.2289e-11
-1.27622e-11
-9.87688e-12
9.42837e-13
1.38073e-11
1.56263e-11
1.44991e-11
1.3375e-11
1.11735e-11
7.99813e-12
-1.2861e-11
-2.57757e-11
-2.46558e-11
1.13922e-12
2.27122e-11
3.26151e-11
-1.31835e-11
-1.31692e-11
-1.30168e-11
-1.26087e-11
-1.27705e-11
-1.13214e-11
-1.85767e-12
1.27395e-11
1.56589e-11
1.44779e-11
1.33242e-11
1.09434e-11
-6.39299e-12
-3.20906e-11
-3.71369e-11
-2.76692e-11
-1.56258e-11
1.30637e-11
3.14736e-11
-1.30329e-11
-1.31289e-11
-1.32207e-11
-1.30927e-11
-1.27833e-11
-1.19961e-11
-4.52862e-12
1.1297e-11
1.56602e-11
1.44554e-11
1.34348e-11
7.99013e-12
-2.64665e-11
-4.87604e-11
-4.61937e-11
-2.98786e-11
-2.005e-11
6.41525e-12
3.2115e-11
-1.10327e-11
-1.14342e-11
-1.29752e-11
-1.35554e-11
-1.26323e-11
-1.12187e-11
-5.56264e-12
9.84742e-12
1.56212e-11
1.44679e-11
1.35263e-11
1.37052e-12
-4.66847e-11
-6.37623e-11
-5.65289e-11
-3.26759e-11
-4.27568e-12
3.04066e-12
2.99597e-11
-6.84923e-12
-6.6273e-12
-1.00287e-11
-1.18807e-11