/*--------------------------------*- C++ -*----------------------------------*\
| =========                 |                                                 |
| \\      /  F ield         | OpenFOAM: The Open Source CFD Toolbox           |
|  \\    /   O peration     | Version:  4.1                                   |
|   \\  /    A nd           | Web:      www.OpenFOAM.org                      |
|    \\/     M anipulation  |                                                 |
\*---------------------------------------------------------------------------*/
FoamFile
{
    version     2.0;
    format      ascii;
    class       volVectorField;
    location    "22";
    object      U;
}
// * * * * * * * * * * * * * * * * * * * * * * * * * * * * * * * * * * * * * //

dimensions      [0 1 -1 0 0 0 0];

internalField   nonuniform List<vector> 
1280
(
(-2.11404e-15 -2.22658 -2.22028)
(-1.86961e-15 -1.7042 -1.94721)
(-1.48167e-15 -1.7526 -1.53803)
(-1.44837e-15 -1.34645 -1.60674)
(-1.95724e-15 -1.46111 -2.09599)
(-1.55198e-15 -0.970723 -1.54369)
(-1.67432e-15 -0.789202 -1.57143)
(-1.80262e-15 -0.509304 -1.50022)
(-3.8533e-15 -0.412455 -1.9762)
(-7.90452e-15 -0.169638 -1.46724)
(-1.01218e-14 0.15744 -1.3737)
(-1.51775e-15 0.299085 -2.53666)
(2.04082e-16 0.747307 -2.04748)
(-1.06833e-16 1.12966 -1.82808)
(9.85464e-17 1.61632 -3.35646)
(1.74654e-16 1.85072 -2.75333)
(-3.69878e-16 2.46555 -2.47989)
(-9.51132e-16 2.83466 -4.21774)
(-1.5985e-15 3.39139 -2.79929)
(-2.80397e-15 3.53231 -4.30749)
(-2.89345e-15 3.63489 -1.67184)
(-3.82352e-15 3.9973 4.8876)
(-3.14625e-15 3.66949 8.27204)
(-2.53157e-15 4.02709 9.50103)
(-1.86021e-15 4.25604 9.54567)
(-1.75092e-15 4.82321 9.45188)
(-1.03046e-16 3.78696 6.39345)
(-1.16337e-15 7.80676 11.7912)
(-8.32598e-16 7.99462 12.2032)
(-5.40206e-16 8.13025 12.6845)
(-1.92602e-16 8.21274 13.1372)
(3.85331e-16 8.23768 13.4277)
(1.09669e-15 8.21541 13.461)
(1.84373e-15 8.13906 13.2437)
(2.3462e-15 8.07118 12.933)
(2.31085e-15 7.95209 12.8104)
(1.5464e-15 7.91683 13.0665)
(6.82465e-16 7.74267 13.5496)
(3.53829e-16 7.84804 14.2522)
(-3.75368e-16 7.61972 13.3295)
(1.00057e-15 10.159 13.3932)
(4.88562e-16 5.65887 8.47263)
(-2.02626e-16 4.47673 7.90017)
(-1.10492e-15 3.76237 7.36068)
(-4.50572e-16 2.74416 7.04739)
(-2.53707e-16 1.61414 4.38843)
(-4.06092e-16 1.14926 4.38041)
(-1.30753e-15 0.57244 4.67118)
(3.42498e-15 -0.166256 2.259)
(-8.7113e-16 0.0898771 1.25463)
(3.70075e-15 -0.49114 1.43045)
(3.4722e-15 -0.595539 3.12757)
(3.37812e-15 -1.60301 4.77864)
(3.26093e-15 -2.20351 4.66584)
(2.96218e-15 -2.61708 4.78839)
(2.98819e-15 -4.04365 7.65491)
(1.31707e-15 -4.83048 7.46107)
(3.55056e-16 -5.67263 8.07193)
(-2.39385e-16 -6.80056 8.64473)
(-3.15724e-16 -11.2288 13.5361)
(1.67282e-15 -8.32616 13.3402)
(1.04712e-15 -8.57798 14.1184)
(1.14096e-15 -8.47088 13.3149)
(4.04774e-16 -8.64633 12.7486)
(-1.92883e-16 -8.67373 12.44)
(-2.87561e-16 -8.78321 12.5196)
(3.03781e-17 -8.83751 12.7677)
(6.29351e-16 -8.8973 12.9016)
(1.31015e-15 -8.90012 12.7939)
(1.67565e-15 -8.85622 12.4591)
(1.80142e-15 -8.76224 11.9887)
(2.09072e-15 -8.61499 11.507)
(2.25059e-15 -8.39265 11.1087)
(1.01326e-15 -5.18385 6.01261)
(2.33871e-15 -5.60366 9.32954)
(1.82998e-15 -5.06549 9.6027)
(1.60682e-15 -4.79632 9.70827)
(1.08723e-15 -4.41157 8.75433)
(4.88353e-16 -4.68986 5.81564)
(-1.44517e-15 -4.34981 -0.24724)
(-1.62905e-15 -4.25216 -2.80051)
(-2.21104e-15 -4.26831 -1.40608)
(-3.55352e-15 -4.80348 -2.46104)
(-2.55693e-15 -3.99751 -1.48599)
(-2.50527e-15 -3.59269 -1.56059)
(-2.07316e-15 -4.31546 -2.03386)
(-3.53613e-17 -3.31342 -1.33471)
(1.26756e-15 -3.02392 -1.35247)
(2.6392e-15 -3.55122 -1.86276)
(1.67224e-15 -2.54195 -1.26743)
(2.37038e-17 -2.30823 -1.40683)
(-2.62533e-15 -2.62753 -2.06296)
(-2.57457e-15 -1.58877 -1.32942)
(-2.87224e-15 -1.56498 -1.28645)
(-2.87091e-15 -1.19548 -1.3588)
(-2.68464e-15 -1.67932 -2.17817)
(-1.93512e-16 -0.247892 -1.35459)
(-1.20499e-15 -0.0907679 -1.41166)
(-4.32879e-15 -0.889594 -3.00461)
(-5.23828e-15 1.01549 -3.58212)
(1.44464e-15 0.480667 -1.33104)
(1.44495e-15 0.0897913 -1.24792)
(1.38815e-15 -0.981037 -1.16739)
(1.35401e-15 -1.80206 -1.35727)
(1.41221e-15 -1.9272 -1.51808)
(9.64997e-16 -1.71593 -1.56821)
(-3.29406e-16 -1.30764 -1.489)
(-1.62295e-15 -1.36265 -0.856801)
(-1.73145e-15 -3.53068 -0.291909)
(-1.61177e-15 -4.14689 0.11023)
(-1.49796e-15 -3.46317 0.463957)
(-1.23458e-15 -2.10164 0.53702)
(-1.57897e-15 3.7245 -0.533418)
(-9.44871e-16 5.68798 -1.47606)
(1.01097e-16 5.94795 -2.16979)
(5.20802e-16 2.14249 -3.33055)
(-1.68157e-15 -3.79849 -4.92808)
(-3.04242e-15 -5.5174 -4.61808)
(-3.75596e-15 -4.07892 -3.86923)
(1.466e-15 0.456786 -1.90626)
(1.47312e-15 0.0132875 -1.87144)
(1.42072e-15 -0.946495 -1.45396)
(1.36544e-15 -1.74023 -1.45025)
(1.41802e-15 -1.91903 -1.52427)
(1.09743e-15 -1.7635 -1.49204)
(-1.0476e-16 -1.48952 -1.37797)
(-1.53414e-15 -1.63662 -0.756752)
(-1.73626e-15 -3.7234 -0.173637)
(-1.61102e-15 -4.26841 0.262972)
(-1.48611e-15 -3.48117 0.766143)
(-1.2415e-15 -1.38746 0.646887)
(-8.88681e-16 4.18303 -0.218194)
(1.429e-15 6.16594 -0.152499)
(2.86397e-15 6.49277 -0.341072)
(2.73953e-15 3.08907 -1.384)
(-1.2658e-16 -3.62364 -4.29917)
(-2.52358e-15 -5.9146 -4.22399)
(-3.6239e-15 -4.60379 -3.42701)
(1.46483e-15 0.47849 -2.1495)
(1.46324e-15 -0.0927715 -2.27809)
(1.44631e-15 -1.06745 -1.97369)
(1.40097e-15 -1.75451 -1.80344)
(1.41894e-15 -1.90842 -1.77858)
(1.25794e-15 -1.79071 -1.65652)
(2.06408e-16 -1.63476 -1.40214)
(-1.4155e-15 -1.91943 -0.680152)
(-1.73988e-15 -3.97631 -0.0297877)
(-1.60865e-15 -4.51017 0.473516)
(-1.48047e-15 -3.72758 1.16905)
(-1.21593e-15 -1.21694 1.12201)
(7.10332e-16 4.07273 0.849555)
(3.56562e-15 5.91759 1.77372)
(4.12632e-15 6.57927 1.68035)
(3.07435e-15 3.85237 0.874764)
(1.7362e-15 -2.87639 -2.68072)
(-1.45152e-15 -5.88046 -3.40033)
(-3.49706e-15 -4.92007 -2.7008)
(1.4481e-15 0.533219 -2.23103)
(1.45877e-15 -0.0907413 -2.50384)
(1.46897e-15 -1.12904 -2.48445)
(1.45475e-15 -1.81072 -2.38573)
(1.42036e-15 -1.95928 -2.36285)
(1.3329e-15 -1.9036 -2.20466)
(5.03179e-16 -1.86145 -1.7209)
(-1.25523e-15 -2.21889 -0.674596)
(-1.74003e-15 -4.21986 0.128798)
(-1.60616e-15 -4.76179 0.722624)
(-1.49276e-15 -3.98742 1.62357)
(-8.87793e-16 -1.13148 1.87858)
(2.94072e-15 3.77567 2.48217)
(5.41783e-15 5.73803 3.76736)
(5.13263e-15 6.87676 3.7732)
(3.31984e-15 4.81329 3.19537)
(2.22778e-15 -2.21673 -0.286048)
(-7.12805e-16 -5.69754 -2.09889)
(-3.56833e-15 -5.11031 -1.91592)
(1.22586e-15 0.617853 -2.1335)
(1.27047e-15 -0.0267185 -2.52567)
(1.44168e-15 -1.08975 -2.75865)
(1.50615e-15 -1.80583 -2.89119)
(1.40359e-15 -1.98755 -3.01373)
(1.24652e-15 -2.05986 -2.90561)
(6.18071e-16 -2.22778 -2.25563)
(-1.09416e-15 -2.65614 -0.782843)
(-1.73569e-15 -4.52781 0.294825)
(-1.60755e-15 -5.07418 0.997565)
(-1.50292e-15 -4.33129 2.09198)
(-1.5228e-16 -1.34225 2.78164)
(5.18719e-15 3.2397 4.23515)
(7.0847e-15 5.39006 5.6923)
(6.28099e-15 6.99437 6.0485)
(3.63066e-15 5.60012 5.72649)
(4.75076e-16 -1.27401 2.12584)
(-3.37852e-16 -4.97353 -0.560041)
(-3.32885e-15 -4.74216 -0.972769)
(7.61025e-16 0.729475 -2.09898)
(7.36367e-16 0.0908913 -2.57623)
(1.1143e-15 -0.971626 -2.89217)
(1.32008e-15 -1.70993 -3.21872)
(1.16809e-15 -1.95377 -3.50715)
(9.29815e-16 -2.21699 -3.44526)
(4.90336e-16 -2.69477 -2.72232)
(-1.00709e-15 -3.24592 -0.938165)
(-1.72826e-15 -4.92973 0.466469)
(-1.61575e-15 -5.45842 1.28538)
(-1.49095e-15 -4.79543 2.54225)
(7.65601e-16 -1.87503 3.70944)
(6.96296e-15 2.56725 5.90305)
(8.05444e-15 4.94727 7.49777)
(6.94237e-15 7.01571 8.24601)
(4.19287e-15 6.32401 8.29527)
(-3.96138e-17 -0.359142 4.80842)
(-5.90926e-17 -4.51058 1.48961)
(-2.86589e-15 -4.48197 0.0251315)
(2.23386e-16 0.855091 -2.21808)
(7.32842e-17 0.245362 -2.73234)
(3.63983e-16 -0.809615 -3.0694)
(6.00133e-16 -1.56178 -3.4386)
(4.98092e-16 -1.89506 -3.7376)
(3.61273e-16 -2.38213 -3.60895)
(1.35492e-16 -3.21062 -2.85954)
(-1.03846e-15 -3.93691 -0.987064)
(-1.7216e-15 -5.4162 0.665209)
(-1.62765e-15 -5.89626 1.58132)
(-1.4478e-15 -5.36092 2.94546)
(1.4871e-15 -2.66296 4.52338)
(7.38539e-15 1.74354 7.31862)
(7.14869e-15 4.39556 8.86859)
(6.05087e-15 6.83936 9.76489)
(4.46173e-15 6.92169 10.5225)
(9.75617e-17 1.48691 7.89003)
(-1.76692e-15 -2.92269 2.98402)
(-2.22457e-15 -2.14997 0.98525)
(-3.28368e-16 0.97594 -2.26742)
(-6.23583e-16 0.402337 -2.72619)
(-5.88828e-16 -0.654673 -3.10664)
(-4.4678e-16 -1.43134 -3.40318)
(-3.85861e-16 -1.87199 -3.55785)
(-2.36017e-16 -2.5757 -3.30019)
(-1.24636e-16 -3.72443 -2.58856)
(-1.14124e-15 -4.65584 -0.817898)
(-1.7158e-15 -5.95313 0.922766)
(-1.63742e-15 -6.36609 1.88378)
(-1.4032e-15 -5.99687 3.27935)
(1.61716e-15 -3.62448 5.12124)
(5.58429e-15 0.926702 8.13242)
(3.56827e-15 3.90013 9.1136)
(2.92146e-15 6.48299 9.89166)
(3.75222e-15 7.02293 11.9221)
(1.86179e-15 3.01011 11.5859)
(-2.35243e-15 -2.10887 6.97873)
(-1.5404e-15 -5.85861 7.18225)
(-8.83335e-16 1.07179 -2.08555)
(-1.23836e-15 0.540126 -2.40904)
(-1.35943e-15 -0.529294 -2.81533)
(-1.23739e-15 -1.36979 -2.97987)
(-9.44056e-16 -1.9265 -3.00569)
(-5.56644e-16 -2.79026 -2.67852)
(-7.24208e-16 -4.19328 -2.03206)
(-1.31196e-15 -5.34384 -0.398787)
(-1.7091e-15 -6.49254 1.25585)
(-1.63876e-15 -6.83955 2.19299)
(-1.29352e-15 -6.65306 3.54007)
(1.36838e-15 -4.61235 5.43995)
(2.26778e-15 0.305694 7.78884)
(-1.09617e-15 3.59674 7.44739)
(-1.20497e-15 5.79757 8.21975)
(1.43301e-15 6.10331 12.0908)
(3.81793e-15 3.02146 14.5287)
(2.66473e-15 -1.75691 13.0302)
(2.1809e-15 -4.60867 9.78657)
(-1.28042e-15 1.13414 -1.6719)
(-1.53678e-15 0.659731 -1.78706)
(-1.58031e-15 -0.437631 -2.28008)
(-1.30559e-15 -1.36839 -2.34694)
(-9.61088e-16 -1.98883 -2.43438)
(-7.25632e-16 -2.98745 -2.01568)
(1.78856e-16 -4.62479 -1.31171)
(-1.45672e-15 -5.9749 0.253895)
(-1.69512e-15 -6.98644 1.66262)
(-1.61516e-15 -7.28766 2.51426)
(-1.30135e-15 -7.27152 3.75382)
(4.38894e-16 -5.39804 5.52517)
(5.77848e-17 0.190494 6.49287)
(-2.66918e-15 3.59518 4.4552)
(-3.26523e-15 4.68964 5.4058)
(-1.59215e-15 4.59774 10.98)
(2.29277e-15 2.77607 13.7529)
(4.36333e-15 -0.727693 12.2955)
(3.60052e-15 -2.4325 8.03406)
(-1.45393e-15 1.15419 -1.00744)
(-1.51303e-15 0.777973 -0.861195)
(-1.165e-15 -0.243152 -1.6034)
(-7.36296e-16 -1.23952 -1.90545)
(-6.65008e-16 -2.01904 -2.00716)
(-7.0545e-16 -3.25252 -1.23585)
(-6.27719e-16 -5.09185 -0.323398)
(-1.58912e-15 -6.53525 1.09228)
(-1.66879e-15 -7.39314 2.12337)
(-1.58791e-15 -7.69084 2.8553)
(-1.40674e-15 -7.81259 3.96118)
(-3.04472e-16 -5.8605 5.49778)
(-1.10632e-16 0.74184 5.33057)
(-9.34264e-16 3.94141 2.63958)
(-1.82227e-15 3.19649 3.33906)
(-3.42257e-15 2.78596 9.44283)
(-8.58534e-16 2.71899 13.0242)
(3.27721e-15 0.69967 11.2871)
(4.67165e-15 -0.472977 6.09862)
(-1.49215e-15 1.15666 -0.0149468)
(-1.38322e-15 0.936454 0.339366)
(-3.06288e-16 -0.114455 -1.00982)
(2.45979e-17 -1.1588 -1.18339)
(-2.77995e-16 -2.23424 -0.940842)
(-5.47288e-16 -3.69077 0.126419)
(-8.9491e-16 -5.5488 1.01677)
(-1.67787e-15 -6.95233 1.99413)
(-1.62983e-15 -7.68812 2.60524)
(-1.57642e-15 -8.04099 3.21692)
(-1.56259e-15 -8.2648 4.18208)
(-8.18527e-16 -6.06496 5.43717)
(-2.87812e-16 1.48611 4.64983)
(-4.888e-16 4.39677 2.15346)
(-1.05928e-15 2.02264 2.60277)
(-3.31072e-15 0.864454 6.01046)
(-3.71013e-15 1.82184 10.0276)
(-2.6088e-15 1.20223 12.4058)
(-1.2377e-15 1.10935 10.0694)
(-1.46838e-15 1.12909 1.19915)
(-1.41736e-15 0.933295 1.63584)
(-3.47946e-16 0.0564775 1.59598)
(2.47727e-16 -1.12543 1.16598)
(-1.09763e-16 -2.49156 1.30125)
(-6.23468e-16 -4.05218 1.92573)
(-1.17789e-15 -5.83013 2.39686)
(-1.69889e-15 -7.17093 2.80948)
(-1.58255e-15 -7.87861 3.07767)
(-1.58856e-15 -8.34323 3.59705)
(-1.74006e-15 -8.62952 4.4226)
(-1.26703e-15 -6.10165 5.33945)
(-6.01853e-16 2.04337 3.90519)
(-5.0835e-16 4.7447 1.61929)
(-7.65337e-16 2.03018 2.44894)
(-4.9106e-16 -0.232904 0.675518)
(-4.31887e-16 0.0533789 1.66518)
(-9.81482e-17 0.683553 5.97891)
(8.48505e-16 4.60513 9.38207)
(-1.39917e-15 1.06051 2.30189)
(-1.60972e-15 0.771564 2.71414)
(-1.15697e-15 0.0398682 3.06299)
(-5.24931e-16 -1.11205 3.18527)
(-5.6785e-16 -2.55761 3.22406)
(-1.04695e-15 -4.17026 3.39867)
(-1.50208e-15 -5.90274 3.47276)
(-1.6434e-15 -7.22665 3.46577)
(-1.53173e-15 -7.99854 3.52924)
(-1.6197e-15 -8.60206 3.99577)
(-1.92767e-15 -8.89125 4.69715)
(-1.6698e-15 -5.89867 5.21209)
(-7.95976e-16 2.75742 3.13062)
(-5.202e-16 4.9849 1.21228)
(-7.50567e-16 2.32039 2.42626)
(-7.67742e-16 0.652549 0.70624)
(-9.83858e-16 0.300614 -0.126776)
(-1.41606e-15 -1.5865 -2.28472)
(7.82433e-16 -2.45941 -0.591579)
(-1.29373e-15 1.00262 3.35003)
(-1.59029e-15 0.604052 3.61761)
(-1.75455e-15 -0.0883601 3.95733)
(-1.42599e-15 -1.17113 4.22103)
(-1.27227e-15 -2.5676 4.30645)
(-1.46087e-15 -4.16486 4.32234)
(-1.63326e-15 -5.85207 4.1945)
(-1.53345e-15 -7.19256 3.98955)
(-1.48292e-15 -8.08382 3.97795)
(-1.66992e-15 -8.83684 4.4267)
(-2.12976e-15 -9.06759 5.01778)
(-2.008e-15 -5.45933 5.04952)
(-7.71976e-16 3.5084 2.38744)
(-6.84488e-16 5.12289 1.29317)
(-7.11096e-16 2.38965 2.03699)
(-7.00352e-16 0.934675 0.4312)
(-9.94399e-16 0.955495 -0.453059)
(-2.14278e-15 -0.0348106 -2.19666)
(3.40216e-16 -1.30444 -3.38789)
(-1.2251e-15 0.979139 4.38551)
(-1.29575e-15 0.503994 4.43905)
(-1.72043e-15 -0.182686 4.66097)
(-1.73482e-15 -1.2354 4.84372)
(-1.62192e-15 -2.57928 4.91543)
(-1.57863e-15 -4.12861 4.88916)
(-1.53626e-15 -5.76546 4.69954)
(-1.40749e-15 -7.14155 4.45326)
(-1.45119e-15 -8.16714 4.44199)
(-1.76474e-15 -9.03431 4.88804)
(-2.36439e-15 -9.09876 5.39037)
(-2.19262e-15 -4.7618 4.85451)
(-3.91495e-16 4.14674 1.65074)
(-7.55047e-16 5.22315 1.67388)
(-7.39483e-16 2.63235 1.55057)
(-6.75817e-16 1.48687 0.389071)
(-1.04271e-15 1.35139 -0.636472)
(-1.43469e-15 0.379397 -1.43513)
(-8.49165e-16 -0.315019 -3.13609)
(-1.29079e-15 1.00168 5.47176)
(-9.87607e-16 0.463571 5.22391)
(-1.31607e-15 -0.248596 5.30712)
(-1.5006e-15 -1.27107 5.36051)
(-1.50597e-15 -2.57996 5.36637)
(-1.42386e-15 -4.08233 5.30729)
(-1.33833e-15 -5.67242 5.11626)
(-1.30416e-15 -7.08525 4.90546)
(-1.47093e-15 -8.24686 4.94186)
(-1.94607e-15 -9.23853 5.41576)
(-2.60305e-15 -9.08487 5.82591)
(-2.13472e-15 -3.89092 4.57971)
(-6.57422e-17 4.6264 1.02794)
(-7.2708e-16 5.27598 1.88328)
(-7.59613e-16 2.92244 1.10604)
(-6.56404e-16 1.85627 0.298501)
(-1.061e-15 1.73988 -0.722116)
(-1.43196e-15 0.882368 -1.59779)
(-1.3391e-15 -0.356095 -2.3374)
(-1.51661e-15 1.09502 6.67644)
(-9.52487e-16 0.551269 6.03845)
(-9.6055e-16 -0.218072 5.98852)
(-1.14977e-15 -1.25157 5.92027)
(-1.22435e-15 -2.55019 5.83315)
(-1.21424e-15 -4.03028 5.73774)
(-1.19817e-15 -5.60584 5.56074)
(-1.28663e-15 -7.08138 5.40115)
(-1.59138e-15 -8.37388 5.48428)
(-2.19511e-15 -9.37716 5.9861)
(-2.70795e-15 -8.74464 6.28758)
(-1.79284e-15 -2.67145 4.25708)
(-6.85238e-17 5.01866 0.856543)
(-6.99093e-16 5.2873 1.75606)
(-7.73238e-16 3.22205 0.831028)
(-6.50964e-16 2.17713 0.20106)
(-1.09238e-15 2.08104 -0.796033)
(-1.50232e-15 1.08365 -1.54145)
(-1.0023e-15 -0.266281 -1.81904)
(-1.80973e-15 1.27789 7.96022)
(-1.33833e-15 0.689381 6.93349)
(-8.10025e-16 -0.215261 6.45583)
(-8.53449e-16 -1.22074 6.39857)
(-9.19782e-16 -2.51517 6.23626)
(-9.76776e-16 -3.98046 6.09643)
(-1.06342e-15 -5.53248 5.91621)
(-1.29042e-15 -7.03699 5.79972)
(-1.7753e-15 -8.45486 5.99154)
(-2.45822e-15 -9.5872 6.62577)
(-2.62171e-15 -8.60703 6.69439)
(-1.2301e-15 -1.63471 3.6529)
(-1.64602e-16 5.47231 1.1261)
(-6.85955e-16 5.37219 1.4795)
(-7.82196e-16 3.47609 0.702495)
(-6.48267e-16 2.46142 0.124558)
(-1.12868e-15 2.37969 -0.823941)
(-1.51279e-15 1.26507 -1.44727)
(-1.47518e-15 -0.267298 -1.72219)
(-1.96436e-15 1.54802 8.9229)
(-2.07399e-15 1.19921 8.12718)
(-1.4843e-15 0.0440064 7.3451)
(-1.22466e-15 -1.13067 7.17877)
(-1.1659e-15 -2.4082 6.96609)
(-1.2086e-15 -3.88903 6.78795)
(-1.38598e-15 -5.48801 6.64821)
(-1.7416e-15 -7.14128 6.64816)
(-2.2366e-15 -8.7438 6.97419)
(-2.52606e-15 -9.58973 7.48587)
(-1.96277e-15 -7.35535 6.78283)
(-4.3174e-16 0.197013 2.82084)
(-1.8118e-16 5.75289 1.4235)
(-6.75181e-16 5.62923 1.26572)
(-7.87962e-16 3.84717 0.659463)
(-6.4776e-16 2.95087 0.0892016)
(-1.15728e-15 2.85091 -0.825856)
(-1.5576e-15 1.62334 -1.34227)
(-1.58838e-15 -0.0300672 -1.92041)
(8.15891e-17 6.76905 11.6035)
(-4.20975e-15 16.8721 29.2446)
(-3.08459e-15 18.4032 30.4556)
(-3.26402e-15 16.7857 27.2919)
(-3.57974e-15 15.199 23.9558)
(-5.04915e-15 13.9265 21.3791)
(-5.28628e-15 12.8465 19.2138)
(-5.20228e-15 12.0248 17.671)
(-5.06091e-15 11.2983 16.2678)
(-5.31471e-15 10.542 14.8994)
(-5.56411e-15 9.74851 13.5325)
(-5.66702e-15 8.92133 12.1596)
(-5.75374e-15 8.06749 10.7756)
(-5.66978e-15 7.21333 9.43297)
(-5.83081e-15 6.48973 8.3242)
(-6.83971e-15 6.1014 7.89498)
(-8.88588e-15 6.30722 8.5337)
(-1.02774e-14 6.91245 10.1419)
(-1.03006e-14 7.3942 11.4069)
(-1.10723e-14 5.36056 9.13297)
(-2.4997e-16 5.67778 8.74546)
(-3.25745e-15 15.5901 27.6412)
(-1.9037e-15 16.8914 29.2281)
(-2.27935e-15 15.0398 26.0255)
(-2.55449e-15 13.3775 22.9086)
(-4.0888e-15 12.1305 20.5604)
(-3.47304e-15 11.2571 18.8772)
(-3.48419e-15 10.5652 17.4346)
(-3.63576e-15 9.92974 16.148)
(-4.32187e-15 9.34046 14.9296)
(-5.02071e-15 8.7662 13.7543)
(-5.74464e-15 8.20342 12.6044)
(-6.74915e-15 7.64446 11.4617)
(-7.16814e-15 7.07712 10.2964)
(-7.75498e-15 6.49999 9.124)
(-8.34739e-15 5.98776 8.08099)
(-9.17365e-15 5.58067 7.43065)
(-9.50045e-15 5.33957 7.20124)
(-9.64054e-15 4.79341 7.10785)
(-1.18608e-14 2.89573 4.14401)
(-7.10983e-17 5.14742 8.56115)
(-7.69041e-16 15.5921 27.8047)
(-4.72451e-16 17.8265 31.3962)
(-5.04815e-16 16.363 28.4264)
(-6.5551e-16 14.5994 25.0975)
(-1.76069e-15 13.3428 22.5355)
(-1.12347e-15 12.3971 20.6504)
(-1.11295e-15 11.6534 19.0632)
(-1.22556e-15 10.9487 17.5965)
(-1.24392e-15 10.2502 16.1641)
(-1.44812e-15 9.53847 14.7561)
(-1.70808e-15 8.81733 13.3791)
(-2.08359e-15 8.08515 12.0406)
(-2.46859e-15 7.35066 10.7333)
(-2.80302e-15 6.59166 9.44761)
(-3.16584e-15 5.83508 8.15359)
(-3.88078e-15 5.01456 6.92009)
(-4.78437e-15 4.25103 5.70528)
(-5.2195e-15 3.07959 4.45022)
(-8.12413e-15 1.17583 0.865946)
(5.71377e-17 3.34365 5.20652)
(2.33683e-16 15.2794 26.515)
(1.32358e-16 18.5282 32.2262)
(1.59239e-16 17.2472 29.6443)
(1.81298e-16 15.3351 26.1784)
(-1.0557e-15 14.0197 23.5514)
(-8.08039e-16 13.0648 21.6625)
(-9.57236e-16 12.2945 20.0302)
(-1.08695e-15 11.5326 18.4595)
(-1.13778e-15 10.7422 16.8649)
(-1.21154e-15 9.9081 15.2446)
(-1.39226e-15 9.0395 13.6179)
(-1.6711e-15 8.14324 12.014)
(-1.96455e-15 7.23734 10.445)
(-2.28861e-15 6.29957 8.91894)
(-2.70615e-15 5.35376 7.38507)
(-3.57781e-15 4.28041 5.82254)
(-4.2635e-15 3.18176 4.02864)
(-5.76563e-15 1.37641 1.77444)
(-1.99544e-14 -0.247074 -2.00213)
(-8.58454e-18 4.69185 7.53074)
(-6.27917e-17 16.3873 26.5604)
(-3.91155e-17 19.8663 32.7533)
(-4.42856e-17 18.7524 30.6546)
(-5.76619e-17 16.8435 27.3859)
(2.48265e-16 15.5759 24.888)
(2.77723e-16 14.6486 23.0576)
(2.98799e-16 13.8682 21.3931)
(3.15904e-16 13.0399 19.7033)
(3.30122e-16 12.1326 17.9145)
(3.74253e-16 11.14 16.0472)
(4.31476e-16 10.0812 14.1322)
(5.2057e-16 8.96516 12.2037)
(6.17642e-16 7.80813 10.2774)
(7.17007e-16 6.58827 8.36979)
(8.34953e-16 5.32929 6.44029)
(1.03476e-15 3.90172 4.46853)
(1.28626e-15 2.42243 2.18212)
(2.26075e-15 0.0636623 -0.527864)
(-9.24149e-15 -1.41726 -4.55563)
(4.04943e-19 9.5537 16.1073)
(1.45222e-17 19.456 30.636)
(1.29222e-17 20.4326 32.7928)
(1.2533e-17 18.8984 30.1304)
(2.03237e-17 17.2277 27.6496)
(-4.45451e-17 16.32 25.7963)
(-7.61859e-17 15.4882 24.2967)
(-8.37259e-17 14.6944 22.6391)
(-8.4895e-17 13.6887 20.7826)
(-8.8698e-17 12.5582 18.7175)
(-1.02349e-16 11.3034 16.5494)
(-1.21573e-16 9.97506 14.3092)
(-1.43374e-16 8.56152 12.0207)
(-1.65191e-16 7.06797 9.67986)
(-1.84908e-16 5.46593 7.29799)
(-2.07058e-16 3.78835 4.8522)
(-2.44124e-16 1.95775 2.42236)
(-2.06125e-16 0.201847 -0.358494)
(8.49325e-16 -2.40746 -3.13234)
(-2.22109e-15 -2.75982 -7.14984)
(6.17072e-20 14.1098 24.8057)
(-3.28406e-18 20.8389 33.8227)
(-3.72504e-18 18.312 31.1312)
(-3.37385e-18 16.7668 28.2732)
(-6.13972e-18 15.5244 27.0549)
(1.01544e-17 14.9523 25.8737)
(2.03071e-17 13.9253 24.599)
(2.17821e-17 12.8261 22.7185)
(2.17598e-17 11.3057 20.4901)
(2.31807e-17 9.72989 18.0075)
(2.79569e-17 8.04937 15.4952)
(3.51312e-17 6.35661 12.8991)
(4.29734e-17 4.56972 10.1967)
(4.50981e-17 2.72283 7.36679)
(2.44357e-17 0.833196 4.44108)
(-4.8238e-17 -1.00674 1.56274)
(-1.5284e-16 -2.42953 -0.789533)
(-2.53482e-17 -3.54742 -2.85811)
(6.11324e-16 -4.84147 -5.21697)
(7.69653e-16 -2.91741 -4.65254)
(-2.7045e-20 15.164 27.3247)
(8.21959e-19 18.2729 31.1134)
(9.70865e-19 15.1515 27.6654)
(1.0615e-18 14.429 25.9781)
(9.43394e-19 13.2535 25.126)
(-3.70149e-18 12.4786 23.8964)
(-5.66379e-18 11.1447 22.4729)
(-5.77675e-18 9.69432 20.3958)
(-5.93008e-18 7.88767 18.0095)
(-5.94959e-18 6.1034 15.4811)
(-5.01709e-18 4.2774 12.9874)
(-2.25451e-18 2.47346 10.4616)
(6.80804e-19 0.665258 7.92543)
(-4.45905e-18 -1.01734 5.47648)
(-2.83023e-17 -2.38601 3.34583)
(-5.98585e-17 -3.19299 1.76795)
(-5.05152e-17 -3.09651 1.13614)
(5.00345e-17 -1.51483 2.25876)
(2.05094e-16 1.47662 5.346)
(1.82285e-16 2.99656 7.03172)
(-2.38778e-21 13.3666 24.1038)
(-1.8715e-19 16.6855 29.0867)
(-2.20299e-19 14.3615 26.1667)
(-2.17562e-19 13.274 23.7073)
(5.5251e-20 11.862 22.361)
(1.05561e-18 10.944 20.8093)
(1.22509e-18 9.5676 19.2976)
(9.95383e-19 8.21082 17.306)
(7.28191e-19 6.5955 15.0849)
(7.45271e-19 5.03024 12.6819)
(1.41089e-18 3.47611 10.2833)
(2.05953e-18 2.06928 7.97978)
(6.75386e-20 0.92776 6.02754)
(-7.89487e-18 0.317014 4.81367)
(-2.1401e-17 0.559136 4.87084)
(-3.26416e-17 1.9528 6.68256)
(-3.20951e-17 4.4297 10.1166)
(-2.2527e-17 7.26544 13.9317)
(-2.17535e-17 9.15153 15.8232)
(-3.04145e-17 6.57491 12.3837)
(1.0461e-21 12.2987 21.9591)
(3.4808e-20 17.4611 29.5987)
(3.88321e-20 15.0323 26.4951)
(3.5822e-20 13.8827 23.1057)
(-1.89864e-20 12.3753 21.4541)
(-2.08612e-19 11.7192 19.5477)
(-2.15579e-19 10.5834 18.0345)
(-1.55432e-19 9.77653 16.3316)
(-1.0564e-19 8.82282 14.7292)
(-5.08341e-20 8.0226 13.0809)
(1.20187e-19 7.26138 11.4985)
(5.02249e-19 6.63264 10.0012)
(8.84855e-19 6.16006 8.70502)
(7.71239e-19 5.94135 7.80532)
(1.80961e-19 6.07839 7.54836)
(4.33736e-19 6.59111 8.18321)
(3.35804e-18 7.40651 9.55535)
(8.03554e-18 7.92463 11.1539)
(1.03905e-17 7.79214 11.6396)
(7.16814e-18 5.33192 9.00432)
(-2.36312e-22 12.496 22.2829)
(-5.20446e-21 18.3371 30.5316)
(-4.95618e-21 15.7454 27.6227)
(-3.77712e-21 14.7006 24.1514)
(4.80496e-21 13.2467 22.4982)
(2.96806e-20 12.6905 20.6652)
(2.6165e-20 11.7524 19.1738)
(1.15018e-20 11.0618 17.5931)
(2.84649e-21 10.335 16.1447)
(-1.54485e-21 9.69461 14.7607)
(-3.60428e-20 9.097 13.4356)
(-1.35528e-19 8.52751 12.1459)
(-2.47919e-19 7.97588 10.8733)
(-2.05265e-19 7.42281 9.63168)
(1.64206e-19 6.88366 8.48954)
(8.69411e-19 6.38852 7.5976)
(1.5765e-18 5.95082 7.09411)
(1.58143e-18 5.51212 6.85571)
(1.75027e-19 4.5862 6.3255)
(-1.94316e-18 2.51259 3.27494)
(7.38721e-23 13.3019 23.753)
(4.90942e-22 19.1089 31.2564)
(1.76495e-22 16.0757 28.2181)
(-9.82208e-23 15.3124 24.8676)
(-9.70583e-22 13.803 23.3554)
(-3.10385e-21 13.3161 21.5082)
(-1.43135e-21 12.3516 20.0389)
(1.47801e-21 11.6465 18.4289)
(2.83321e-21 10.8625 16.9214)
(2.87647e-21 10.1273 15.435)
(7.22494e-21 9.40341 13.9978)
(2.10887e-20 8.69004 12.607)
(3.30608e-20 7.97859 11.259)
(7.91486e-21 7.26025 9.93953)
(-8.75464e-20 6.49906 8.6296)
(-2.54847e-19 5.69518 7.29165)
(-4.73827e-19 4.74815 5.93042)
(-7.42957e-19 3.72586 4.41558)
(-9.94276e-19 2.07504 2.57775)
(-1.22998e-18 0.347629 -0.992934)
(-2.40383e-23 14.6095 26.5352)
(1.98586e-23 19.7686 31.7182)
(1.40539e-22 16.1416 28.758)
(1.94481e-22 16.0082 25.6856)
(1.90596e-22 14.3079 24.4159)
(8.8564e-23 14.0135 22.4812)
(-4.74754e-22 12.9498 21.0713)
(-1.02242e-21 12.339 19.442)
(-1.16863e-21 11.5653 17.9721)
(-1.04784e-21 10.877 16.4589)
(-1.37005e-21 10.1482 14.9329)
(-2.25465e-21 9.37198 13.3406)
(-1.33146e-21 8.50241 11.6681)
(5.97119e-21 7.52443 9.90647)
(2.15845e-20 6.41095 8.07734)
(4.14671e-20 5.20638 6.16947)
(6.2223e-20 3.80526 4.1966)
(8.82812e-20 2.32251 1.90972)
(1.54939e-19 0.0192212 -0.675474)
(-4.71828e-19 -1.2491 -4.3515)
(6.39403e-24 15.9145 29.7074)
(-2.3354e-23 19.9321 31.5261)
(-5.13175e-23 15.9705 29.2861)
(-5.03668e-23 16.5894 26.561)
(-2.0957e-23 14.5614 25.554)
(2.9342e-23 14.5563 23.5757)
(4.20168e-23 13.3438 22.3438)
(-3.57939e-23 12.9217 20.781)
(-6.57834e-23 12.1608 19.4721)
(2.47842e-22 11.5781 18.0291)
(1.06339e-21 10.8387 16.4837)
(1.99175e-21 9.94111 14.6503)
(2.14086e-21 8.77312 12.5044)
(1.00139e-21 7.37997 10.1138)
(-6.16053e-22 5.81693 7.62467)
(-9.28316e-22 4.18109 5.05923)
(2.61491e-21 2.34016 2.51881)
(1.12938e-20 0.542548 -0.375899)
(1.25387e-19 -2.13703 -3.31266)
(-6.44575e-20 -2.71642 -7.00288)
(-1.54412e-24 16.4821 31.6649)
(7.62273e-24 19.2868 30.4026)
(1.8359e-23 15.4456 29.3526)
(2.6135e-23 16.4348 26.8036)
(3.99272e-24 14.0688 25.9715)
(-1.04631e-22 14.1915 24.0205)
(-2.99483e-22 12.7628 22.9922)
(-4.29649e-22 12.4147 21.5495)
(-1.34282e-22 11.5093 20.4389)
(9.5163e-22 10.8626 19.0392)
(2.65642e-21 9.8146 17.3258)
(3.92715e-21 8.42822 14.9143)
(3.70014e-21 6.5966 11.9226)
(2.78702e-21 4.66622 8.78233)
(2.43826e-21 2.83249 5.79514)
(1.29345e-21 0.882779 2.70061)
(-3.32875e-23 -1.11831 -0.097658)
(3.56277e-21 -1.34406 -1.83532)
(7.48828e-20 -4.35179 -5.1307)
(9.97888e-20 -3.75249 -7.91204)
(1.05467e-25 16.021 31.4207)
(-1.51156e-24 18.4381 29.0486)
(2.623e-24 14.8005 28.5345)
(1.07705e-23 15.6264 26.0019)
(-6.55677e-24 13.3363 25.1118)
(-1.0594e-22 13.1764 23.2748)
(-2.97529e-22 11.8133 22.1806)
(-3.9156e-22 11.2137 20.8244)
(4.52631e-23 10.2324 19.6744)
(1.31521e-21 9.33253 18.2379)
(2.81136e-21 8.02736 16.3281)
(2.86812e-21 6.36975 13.6819)
(8.30729e-22 4.51389 10.6852)
(-7.08204e-22 2.89396 7.95139)
(1.1654e-21 1.47927 5.44767)
(9.67051e-21 -0.123103 2.55692)
(3.57987e-20 -2.07982 -0.931113)
(8.0705e-20 -3.75148 -4.06513)
(1.20756e-19 -4.24682 -4.87266)
(9.08668e-20 -1.46978 -1.44438)
(-1.55289e-25 15.0779 30.4082)
(4.93172e-25 18.1015 27.9462)
(4.82632e-24 13.9853 27.4585)
(1.03932e-23 14.9782 24.8269)
(-9.24176e-24 12.6971 23.8905)
(-9.95738e-23 12.4348 22.0464)
(-2.66864e-22 11.1622 20.8266)
(-3.87708e-22 10.4619 19.4183)
(-1.95949e-22 9.52877 18.17)
(4.5739e-22 8.65588 16.7792)
(1.15501e-21 7.60843 15.1499)
(9.33761e-22 6.46388 13.192)
(-5.79347e-22 5.3618 11.1358)
(-1.59828e-21 4.4531 9.22966)
(2.3675e-21 3.59663 7.31913)
(1.73944e-20 2.62941 5.1006)
(4.74044e-20 1.85573 2.84995)
(1.0197e-19 1.42153 1.17011)
(1.36515e-19 -0.478183 -1.21563)
(8.19251e-20 3.24142 6.08033)
(-8.38374e-26 13.9617 30.2488)
(1.94725e-25 18.029 27.2218)
(3.33357e-24 13.2162 27.1191)
(7.51768e-24 14.2648 24.6361)
(-5.81536e-24 12.1233 23.665)
(-7.03772e-23 11.7074 21.9819)
(-2.04785e-22 10.5827 20.7197)
(-3.69788e-22 9.86868 19.3482)
(-4.57777e-22 9.06003 18.0992)
(-3.7039e-22 8.36036 16.8497)
(-1.40314e-22 7.67138 15.6064)
(4.28291e-23 7.02714 14.3043)
(-1.48536e-23 6.40437 12.9123)
(-3.30346e-22 5.78839 11.4146)
(-7.12599e-22 5.14787 9.79763)
(-6.69546e-22 4.40304 7.90624)
(1.22934e-21 3.22917 5.32799)
(2.55599e-21 1.61554 1.66575)
(5.20983e-20 -0.118847 -1.6638)
(8.14091e-20 -0.54519 -2.66739)
(-2.75149e-26 11.1553 28.5304)
(1.04701e-25 17.1019 24.9695)
(1.48322e-24 12.0419 25.3564)
(3.79562e-24 12.7442 23.6072)
(-1.555e-24 11.0137 22.8375)
(-3.48017e-23 10.3797 21.7173)
(-1.18596e-22 9.41275 20.7745)
(-2.54591e-22 8.67475 19.8031)
(-3.96825e-22 7.94936 18.8843)
(-4.54641e-22 7.31746 17.9899)
(-3.55165e-22 6.73857 17.1162)
(-1.40643e-22 6.20462 16.2212)
(1.38854e-23 5.68629 15.2579)
(-4.85746e-23 5.16448 14.1779)
(-1.77371e-22 4.60743 12.9012)
(5.32202e-22 3.8978 11.2335)
(4.44339e-21 2.7867 8.71857)
(1.53299e-20 1.00181 4.63761)
(3.32537e-20 -1.36301 -0.819321)
(4.11455e-20 -2.21384 -4.2857)
(9.6525e-28 2.61907 17.0647)
(1.12759e-25 8.04409 13.7075)
(4.05549e-25 5.17957 14.5556)
(5.85038e-25 4.9834 14.1697)
(-9.34767e-25 4.06583 14.1324)
(-7.62513e-24 3.50438 13.964)
(-2.38512e-23 2.93653 13.8129)
(-5.19225e-23 2.47412 13.6295)
(-8.83359e-23 2.07248 13.4236)
(-1.20986e-22 1.73976 13.1867)
(-1.30352e-22 1.47047 12.9195)
(-1.00361e-22 1.26886 12.6256)
(-3.87892e-23 1.1391 12.3112)
(8.69323e-24 1.09353 11.976)
(-3.02111e-23 1.14861 11.6142)
(-2.21327e-22 1.27212 11.2379)
(-5.69759e-22 1.48733 10.7888)
(-9.04469e-22 2.08065 9.91719)
(-8.12905e-22 2.29335 8.49933)
(-1.75659e-22 -0.241071 6.3199)
(-7.85493e-28 -2.61911 17.0648)
(-1.22028e-25 -8.04407 13.7076)
(-4.42067e-25 -5.17954 14.5557)
(-6.46415e-25 -4.98335 14.1698)
(9.80132e-25 -4.06575 14.1325)
(8.20435e-24 -3.50427 13.9642)
(2.57763e-23 -2.93638 13.8131)
(5.62177e-23 -2.47392 13.6297)
(9.57202e-23 -2.07222 13.4238)
(1.3111e-22 -1.73944 13.1869)
(1.41184e-22 -1.4701 12.9197)
(1.08542e-22 -1.26847 12.6259)
(4.15694e-23 -1.13872 12.3115)
(-1.08237e-23 -1.09317 11.9764)
(2.83989e-23 -1.14827 11.6146)
(2.29834e-22 -1.27178 11.2385)
(6.01288e-22 -1.48703 10.7895)
(9.63074e-22 -2.08062 9.91788)
(8.71908e-22 -2.29374 8.49999)
(1.9105e-22 0.240839 6.32061)
(2.94817e-26 -11.1555 28.5308)
(-1.04194e-25 -17.1021 24.9699)
(-1.57224e-24 -12.0421 25.3568)
(-4.09681e-24 -12.7444 23.6077)
(1.43173e-24 -11.0139 22.838)
(3.67861e-23 -10.38 21.7178)
(1.267e-22 -9.41311 20.7751)
(2.733e-22 -8.67516 19.8037)
(4.26586e-22 -7.94981 18.8849)
(4.87423e-22 -7.31793 17.9904)
(3.76443e-22 -6.73901 17.1165)
(1.40343e-22 -6.20496 16.2213)
(-3.04382e-23 -5.68653 15.2579)
(3.44379e-23 -5.16468 14.1779)
(1.77302e-22 -4.60755 12.9012)
(-5.6483e-22 -3.8976 11.2332)
(-4.73248e-21 -2.78555 8.71659)
(-1.64286e-20 -0.998686 4.63243)
(-3.58204e-20 1.36743 -0.825706)
(-4.45285e-20 2.21506 -4.28807)
(8.91644e-26 -13.9618 30.2491)
(-2.13061e-25 -18.0295 27.2218)
(-3.53059e-24 -13.2164 27.1193)
(-8.07841e-24 -14.2654 24.6361)
(5.74709e-24 -12.1238 23.6649)
(7.41094e-23 -11.7081 21.9817)
(2.17599e-22 -10.5835 20.7193)
(3.94704e-22 -9.86962 19.3477)
(4.89481e-22 -9.06114 18.0986)
(3.95005e-22 -8.36175 16.8491)
(1.45407e-22 -7.67319 15.6061)
(-5.53258e-23 -7.02945 14.3047)
(4.11351e-24 -6.40704 12.9134)
(3.4974e-22 -5.79124 11.4164)
(7.90809e-22 -5.15075 9.80002)
(8.18982e-22 -4.40568 7.9088)