/*--------------------------------*- C++ -*----------------------------------*\
| =========                 |                                                 |
| \\      /  F ield         | OpenFOAM: The Open Source CFD Toolbox           |
|  \\    /   O peration     | Version:  4.1                                   |
|   \\  /    A nd           | Web:      www.OpenFOAM.org                      |
|    \\/     M anipulation  |                                                 |
\*---------------------------------------------------------------------------*/
FoamFile
{
    version     2.0;
    format      ascii;
    class       volScalarField;
    location    "17";
    object      p;
}
// * * * * * * * * * * * * * * * * * * * * * * * * * * * * * * * * * * * * * //

dimensions      [0 2 -2 0 0 0 0];

internalField   nonuniform List<scalar> 
1280
(
1.89836
7.20831
7.65891
7.6946
8.42899
12.1175
11.6771
11.2266
12.1218
13.0538
10.4942
12.2252
12.3489
7.62317
10.3981
10.1658
3.26315
7.00566
6.08768
-4.69803
0.144882
8.85516
25.1955
44.3188
56.189
64.1335
52.2058
49.5886
53.6784
53.2028
52.1394
51.015
48.9885
46.3628
43.2581
39.8658
36.3463
33.0007
30.5888
26.0807
38.2154
43.0359
44.425
48.3427
61.0864
59.9708
60.3004
60.637
61.467
61.1705
61.1619
61.2377
59.8191
58.1583
57.5808
61.0173
41.2757
34.2887
30.2971
25.5755
16.7483
20.7738
22.3861
25.2647
28.1808
31.0412
33.634
35.8039
37.4151
38.2695
39.0818
39.0644
35.3401
43.2663
56.4703
47.1724
34.4778
15.439
0.537907
-6.58015
-9.18881
2.47874
14.8249
19.6964
23.1719
29.6885
29.8037
29.8916
30.0811
30.6428
28.6631
26.8276
25.3417
21.229
19.0946
17.7372
12.8144
5.29026
0.377524
4.41566
0.12187
0.717384
2.01247
3.33508
3.26035
1.83979
0.642997
-0.207541
-0.723972
-1.74749
-2.94269
-1.35243
-7.31896
-6.18265
-4.75921
-1.15283
4.23159
5.79483
5.2162
0.425206
2.12101
4.43642
5.97075
4.81536
2.4438
1.22784
0.345456
-0.356789
-1.96328
-3.59823
-4.23093
-10.1231
-3.87684
1.91226
10.6086
16.6944
18.3268
14.2395
0.694886
3.4256
6.59733
9.04685
7.86238
4.65115
2.46945
0.866385
-0.489255
-3.44091
-8.74162
-10.5235
-14.135
-3.33963
4.7186
16.3993
24.7683
26.6941
21.4784
0.911155
4.40325
7.89947
10.3601
9.16013
5.67142
3.02811
1.19342
-0.587016
-4.30389
-11.5618
-16.0248
-18.9309
-4.39784
6.12831
21.0298
32.6382
35.3191
27.8294
1.01585
5.04808
8.53125
10.8797
9.7284
6.80555
3.72946
1.78169
-0.449976
-4.97777
-14.4838
-21.2707
-22.3391
-5.06984
8.02902
26.0942
40.5592
44.31
34.0778
0.988365
5.26905
8.4512
10.8039
9.34339
7.56848
4.134
2.34402
-0.132636
-4.99792
-16.0655
-25.0447
-24.4204
-5.67533
9.7834
30.5173
47.5096
53.3531
34.3286
0.823282
5.13745
8.04612
10.5006
8.83662
8.60379
4.69872
3.10506
0.510414
-4.41021
-16.6349
-27.0638
-25.2704
-6.33951
11.0613
33.972
52.7607
59.6269
33.2922
0.501508
4.7655
7.44463
9.968
8.49165
9.50472
5.34349
3.90431
1.42879
-3.1326
-15.8098
-26.794
-24.5357
-6.79709
11.8995
36.1295
59.174
63.5057
44.0663
0.0292491
4.17867
6.66892
9.14945
8.44804
9.84662
6.07402
4.76494
2.62304
-1.24764
-13.7401
-24.5096
-22.5147
-6.95646
11.9443
36.3978
61.3338
62.4794
78.9906
-0.622131
3.30502
5.62125
8.03733
8.48626
9.42933
6.69347
5.61097
3.99647
1.16227
-10.5257
-20.6494
-19.6195
-6.96526
10.8609
34.263
53.969
59.9469
74.0417
-1.45953
2.04994
4.19444
6.60453
8.32075
8.5889
7.08233
6.42643
5.44953
3.9854
-6.4356
-15.9768
-16.4007
-6.91393
8.97741
28.6831
43.0464
53.699
72.7385
-2.43626
0.429575
2.31907
4.89657
7.75162
7.73299
7.15218
7.15877
6.87531
7.12958
-1.46593
-10.7889
-13.1109
-6.81326
6.27689
22.1187
36.581
55.5012
76.0309
-3.58672
-1.51911
-0.0061661
3.25847
6.82965
7.03287
6.92457
7.71824
8.19592
10.4525
4.34708
-4.83071
-9.25592
-6.04687
3.79005
15.1537
20.9342
24.0085
32.435
-4.67555
-3.69596
-2.09959
1.86823
5.56956
6.28162
6.43193
7.95757
9.34039
13.681
10.0489
1.09496
-4.71455
-4.13764
1.73385
5.6427
0.263161
3.12333
18.2963
-4.88961
-4.93014
-3.35288
1.0046
4.18937
5.08495
5.73988
7.74833
10.1379
16.2109
14.085
5.79312
0.143407
-1.079
0.940065
-1.43932
-5.02328
3.26933
19.6738
-4.89961
-5.13099
-4.03279
0.569779
3.03223
3.35187
4.91515
7.0508
10.2073
17.348
15.6971
8.86628
4.16198
2.02674
0.806591
-6.76305
-6.54945
-1.8202
14.9166
-4.69556
-4.41329
-3.44029
1.15289
2.88239
1.478
4.05903
5.94652
9.40307
17.4138
15.1559
10.1277
6.23276
3.70184
0.0715863
-10.8455
-8.45164
-3.64602
13.0801
-4.06315
-3.91121
-3.39656
0.607673
2.94626
0.0473615
3.3128
4.71224
8.24713
16.8058
12.4808
9.21513
6.22281
3.61959
-1.03805
-11.6882
-10.5424
-3.67272
9.88012
-2.83029
-2.02565
-0.807313
2.23245
3.63892
-0.842675
2.62837
3.50112
7.18077
15.0881
8.28695
6.46904
3.95399
2.15814
-1.25351
-7.17081
-11.6687
-3.41725
6.77213
-1.62927
-2.16771
-2.63641
-2.39547
0.370715
-1.10825
1.36543
1.38542
3.34696
7.57311
2.15399
2.59621
2.21647
1.04199
-1.62885
-3.47525
-10.6073
-3.84186
4.12129
62.4265
60.4784
59.5846
58.0698
55.0689
51.5065
46.9078
42.621
38.7444
35.5884
33.057
31.1981
30.0527
29.6322
29.8347
30.5886
31.5074
32.3184
32.5072
33.0667
66.2484
62.6242
59.5472
56.3515
52.9726
49.4169
45.5644
41.4614
37.3595
33.4548
29.9045
26.785
24.2714
22.5343
21.6609
21.7333
22.6198
23.7329
24.229
23.2
114.581
112.127
109.397
107.341
105.235
103.372
101.76
100.142
98.4558
96.5785
94.4844
92.047
89.2305
86.1388
83.065
80.3602
78.4426
77.8831
77.9371
74.6723
111.31
111.722
110.791
110.884
110.663
110.241
109.616
108.697
107.582
106.171
104.547
102.723
100.732
98.6369
96.662
95.1142
94.1877
93.592
93.7397
92.5251
101.3
103.04
103.768
104.966
105.96
106.909
107.98
108.864
109.693
110.251
110.484
110.267
109.548
108.373
107.122
106.235
106.227
106.701
107.323
107.206
80.1484
82.4622
83.8566
85.2265
86.6397
87.6805
88.9444
90.0083
91.1379
92.2358
93.3452
94.4625
95.5844
96.7013
97.8121
98.9481
100.07
101.302
102.167
103.308
60.2685
62.7429
64.9193
66.5014
68.4225
69.7361
71.3533
72.6884
74.0612
75.3524
76.6031
77.8284
79.0295
80.2372
81.4368
82.6972
83.9125
85.2914
86.3051
87.7557
40.1027
42.2825
44.579
45.8062
47.9645
49.2548
51.1382
52.6507
54.3211
55.9098
57.4974
59.0797
60.6536
62.2587
63.8667
65.5593
67.1859
68.9865
70.3399
72.3524
13.7882
13.837
15.3136
15.0371
16.5441
16.6634
17.9247
18.509
19.5565
20.4433
21.4908
22.588
23.783
25.1046
26.544
28.2689
30.1475
32.8568
35.2697
38.7563
7.06694
2.72126
2.48848
-0.486077
-1.20508
-3.83141
-4.94456
-7.07298
-8.32521
-9.72316
-10.4459
-10.7958
-10.6217
-10.0818
-9.23889
-8.13751
-6.96482
-5.45618
-4.10433
-0.791212
46.0473
40.2906
39.0372
34.4237
32.4023
28.0551
25.1713
20.9202
17.3721
13.2899
9.76513
6.43352
3.75139
1.62732
0.267363
-0.452396
-0.562264
-0.259436
-0.77103
-0.781924
92.9216
90.2602
90.6442
88.1228
88.5289
86.5002
86.4101
84.9205
84.3137
83.0901
82.0836
80.6962
79.0672
76.9395
74.4156
71.6178
69.1239
68.0863
67.2561
63.2079
93.9071
94.54
96.0609
95.1878
97.2192
96.5265
97.861
97.6112
98.0551
97.7615
97.4594
96.8307
96.1043
95.293
94.5198
93.852
93.3047
92.7116
92.5939
91.3878
75.4372
76.8649
79.9333
79.4287
82.9429
83.0872
85.6512
86.7241
88.4978
89.8441
91.1292
92.1099
92.7377
92.9732
92.9612
93.009
93.6123
94.8254
95.9983
96.9496
47.1337
47.4692
51.3863
50.188
54.3047
54.1885
57.0251
58.2887
60.3445
62.1848
64.1187
66.0918
68.0774
70.0894
72.0891
74.1328
76.1375
78.3478
80.2056
82.6241
21.297
18.7356
21.8525
18.494
21.557
19.684
21.2639
21.0607
21.9334
22.5505
23.4419
24.4393
25.5808
26.9156
28.4512
30.4001
32.5269
35.172
37.5487
41.1184
40.9643
35.5904
37.2944
30.0837
29.6568
24.367
21.7847
17.7819
14.602
11.2278
8.18458
5.33006
2.83204
0.884001
-0.235739
-0.204149
0.315966
1.20118
1.70466
3.7977
59.0489
51.1111
58.6485
50.8532
52.0642
47.8183
45.6142
42.0806
38.7749
35.135
31.4621
27.7161
24.0679
20.7322
18.1064
16.6233
16.0368
15.4408
14.1227
14.1113
81.6341
59.0703
67.2277
56.1757
53.5563
46.9979
42.209
37.0963
32.7354
28.8906
25.8202
23.5816
22.2987
22.1063
23.2827
25.8196
29.068
32.766
35.8964
36.8096
762.612
680.327
631.364
575.35
526.498
479.332
435.437
393.935
354.831
317.839
282.792
249.51
217.824
187.734
159.372
131.987
105.611
84.1382
59.7477
22.9235
766.195
683.911
634.948
578.935
530.083
482.917
439.023
397.523
358.419
321.427
286.381
253.098
221.413
191.324
162.961
135.575
109.199
87.7232
63.3315
26.5086
85.2319
62.6689
70.8266
59.7752
57.1563
50.5984
45.81
40.6977
36.3372
32.4926
29.4224
27.1839
25.901
25.7088
26.8859
29.4228
32.6704
36.3694
39.5008
40.4136
62.6589
54.7211
62.2583
54.463
55.6742
51.4284
49.2246
45.6912
42.3856
38.7459
35.0732
31.3277
27.68
24.3455
21.7214
20.2393
19.6512
19.0532
17.7339
17.7184
44.5645
39.1879
40.8912
33.6787
33.2502
27.959
25.3752
21.3709
18.1892
14.813
11.7677
8.91102
6.41093
4.4611
3.33986
3.36897
3.88455
4.76529
5.26629
7.35548
24.8508
22.2848
25.3991
22.0379
25.0972
23.2209
24.7972
24.5899
25.4587
26.0713
26.9583
27.9512
29.0881
30.4186
31.9504
33.8968
36.022
38.6675
41.0441
44.6139
50.6654
50.9996
54.9173
53.719
57.8358
57.7195
60.5563
61.82
63.8762
65.717
67.6515
69.6252
71.6115
73.6243
75.6251
77.6705
79.6774
81.8907
83.7509
86.1727
79.028
80.4538
83.5226
83.0163
86.5298
86.673
89.2351
90.3066
92.0776
93.4218
94.7044
95.6837
96.312
96.551
96.5472
96.6079
97.2237
98.4444
99.6189
100.573
97.4595
98.0975
99.6187
98.749
100.781
100.093
101.43
101.187
101.638
101.354
101.063
100.448
99.7367
98.9417
98.1846
97.5318
96.997
96.4075
96.2895
95.0921
96.6878
94.0416
94.4314
91.9214
92.3378
90.3203
90.2412
88.7622
88.1647
86.9486
85.9466
84.5602
82.9283
80.7931
78.2573
75.4459
72.94
71.8975
71.0722
67.026
49.8734
44.118
42.8653
38.2516
36.2301
31.8827
28.9987
24.7479
21.2005
17.1201
13.5978
10.2696
7.59154
5.4708
4.11263
3.39261
3.2783
3.58342
3.07001
3.04099
10.8347
6.47934
6.24443
3.26676
2.54397
-0.0847533
-1.2015
-3.33273
-4.58849
-5.99007
-6.7177
-7.07428
-6.90927
-6.38111
-5.55273
-4.46794
-3.30917
-1.81734
-0.47759
2.82842
17.4229
17.4597
18.9289
18.6423
20.1393
20.2471
21.4962
22.0664
23.0991
23.9696
25.0005
26.081
27.2598
28.5667
29.9936
31.709
33.5821
36.3009
38.718
42.2065
43.7011
45.8789
48.1726
49.3962
51.5518
52.839
54.7198
56.2298
57.8981
59.4851
61.0719
62.6543
64.2294
65.8367
67.4481
69.1449
70.7763
72.5821
73.9394
75.9575
63.923
66.3944
68.5692
70.1484
72.0672
73.3785
74.9934
76.3266
77.6976
78.9876
80.2376
81.4627
82.6639
83.872
85.0719
86.3323
87.5474
88.9259
89.939
91.3887
83.7319
86.0498
87.4451
88.816
90.2313
91.2741
92.5404
93.6073
94.74
95.8416
96.9539
98.0735
99.1977
100.315
101.427
102.566
103.691
104.928
105.797
106.939
105.156
106.879
107.586
108.765
109.738
110.664
111.711
112.569
113.372
113.905
114.116
113.889
113.174
112.021
110.813
109.972
109.994
110.472
111.085
110.963
114.769
115.197
114.204
114.265
114.041
113.621
112.988
112.065
110.955
109.565
107.98
106.216
104.304
102.305
100.423
98.9442
98.0531
97.435
97.5221
96.2588
119.671
117.238
114.368
112.226
110.03
108.058
106.352
104.678
102.947
101.011
98.8397
96.3059
93.3713
90.1349
86.8931
84.0189
81.9226
81.1371
81.0507
77.7669
71.4373
68.1563
65.0448
61.8164
58.4032
54.8585
51.0582
46.9805
42.8234
38.814
35.1633
31.9519
29.3519
27.5243
26.5689
26.5576
27.3486
28.4409
28.9678
27.8639
76.7588
74.7796
73.363
71.3073
67.7864
63.7398
58.8237
53.9823
49.3908
45.7004
42.742
40.5284
39.1028
38.4616
38.4948
39.1205
39.9325
40.5987
40.6127
40.8089
)
;

boundaryField
{
    outletWall
    {
        type            fixedValue;
        value           uniform 0;
    }
    fineWalls
    {
        type            zeroGradient;
    }
    fineFrontAndBack
    {
        type            zeroGradient;
    }
    fineplugLeft
    {
        type            cyclicAMI;
        value           nonuniform List<scalar> 
20
(
31.6695
32.1235
32.4548
32.4752
32.444
32.5194
32.9783
33.8399
35.1615
36.8735
39.1113
41.7312
44.0145
47.5102
54.0319
55.2929
55.3196
52.7068
50.1537
49.9702
)
;
    }
    fineplugRight
    {
        type            cyclicAMI;
        value           nonuniform List<scalar> 
20
(
35.9968
36.6449
36.9562
36.9989
36.9326
37.0041
37.4961
38.443
39.9058
41.8475
44.3767
47.3255
50.2539
57.0547
62.2859
63.6636
63.9414
61.7782
59.9313
60.091
)
;
    }
    inletOutletLeft
    {
        type            cyclicAMI;
        value           nonuniform List<scalar> 
20
(
31.6695
32.1235
32.4548
32.4752
32.444
32.5194
32.9783
33.8399
35.1615
36.8735
39.1113
41.7312
44.0145
47.5102
54.0319
55.2929
55.3196
52.7068
50.1537
49.9702
)
;
    }
    inletLeft
    {
        type            zeroGradient;
    }
    inletWallsLeft
    {
        type            zeroGradient;
    }
    inletFacesLeft
    {
        type            zeroGradient;
    }
    inletOutletRight
    {
        type            cyclicAMI;
        value           nonuniform List<scalar> 
20
(
35.9968
36.6449
36.9562
36.9989
36.9326
37.0041
37.4961
38.443
39.9058
41.8475
44.3767
47.3255
50.2539
57.0547
62.2859
63.6636
63.9414
61.7782
59.9313
60.091
)
;
    }
    inletRight
    {
        type            zeroGradient;
    }
    inletWallsRight
    {
        type            zeroGradient;
    }
    inletFacesRight
    {
        type            zeroGradient;
    }
}


// ************************************************************************* //
