/*--------------------------------*- C++ -*----------------------------------*\
| =========                 |                                                 |
| \\      /  F ield         | OpenFOAM: The Open Source CFD Toolbox           |
|  \\    /   O peration     | Version:  4.1                                   |
|   \\  /    A nd           | Web:      www.OpenFOAM.org                      |
|    \\/     M anipulation  |                                                 |
\*---------------------------------------------------------------------------*/
FoamFile
{
    version     2.0;
    format      ascii;
    class       surfaceScalarField;
    location    "17";
    object      phi;
}
// * * * * * * * * * * * * * * * * * * * * * * * * * * * * * * * * * * * * * //

dimensions      [0 3 -1 0 0 0 0];

internalField   nonuniform List<scalar> 
2360
(
-5013.08
-577.763
-4435.32
-577.762
-577.763
3719.1
-4296.86
3719.1
3719.1
3719.1
7407.82
-3688.72
7407.82
7407.82
10552.8
-3144.99
10552.8
10552.8
12939.1
-2386.28
12939.1
12939.1
15500.8
-2561.66
15500.8
15500.7
15889.1
16895.7
18464.1
20311.4
22148.2
23852.2
17624.6
7829.76
19079.2
20413
21625.9
22718.2
23688.3
24535.2
25257.5
25855.2
26330.9
26695.3
26962.6
27139.6
27171
13863.5
13307.5
13863.5
13863.5
13863.5
3014.9
10848.6
3014.9
3014.9
3014.9
641.258
2373.64
641.254
641.257
-4994.2
5635.45
-4994.19
-4994.2
-4994.19
-17355.6
12361.4
-17355.6
-17355.6
-17355.6
-28742.7
11387.1
-28616.4
-28391.9
-28091.4
-27701.6
-27206.8
-26595.6
-25864.8
-25013.8
-24043.1
-22953.4
-21745.3
-20418.5
-18973
-22304.6
4927.01
-20600.1
-18770.5
-16948.6
-15434.3
-14501
-14169.8
-14169.8
-14169.8
-6963.91
-7205.85
-6963.91
-6963.91
-375.396
-6588.51
-375.406
-375.403
4840.56
-5215.97
4840.56
4840.56
9318.32
-4477.76
9318.31
9318.32
9318.31
13692.4
-4374.04
13692.4
13692.4
18623.8
-4931.42
2450.38
-2857.61
2185.16
-4756.81
829.43
-7710.1
-2091.63
-9261.45
-4697.79
-8605.04
-5681.54
-8726.3
-5621.95
-10778.6
-5068.63
-13951
-4372.16
-17704.2
-3604.24
-20806
-2186.27
-19906.6
-388.135
741.97
212.375
19968
1114.04
26845.5
2247.98
29909.1
3520
29603.9
4369.01
22334.2
5149.53
10959.3
-3211.34
2866.87
-2643.04
2283.43
-4173.36
496.785
-5923.46
-2473.06
-6291.6
-4411.49
-6666.62
-4711.71
-8426.07
-4328.73
-11161.6
-3568.36
-14711.4
-2661.56
-18611
-1887.42
-21580.1
-1181.03
-20613
-219.99
-219.066
100.706
19647.3
842.559
26103.6
1951.4
28800.2
3262.64
28292.7
4251.06
21345.8
4840.23
10370.1
-2745.16
3002.92
-2321.74
2238.82
-3409.26
484.594
-4169.23
-2049.88
-3757.13
-3805.44
-4911.05
-4341.78
-7889.73
-4242.76
-11260.7
-3683.82
-15270.3
-2907.44
-19387.4
-2173.62
-22314
-1655.53
-21131.1
-677.81
-1196.79
-236.429
19205.9
373.489
25493.7
1476.97
27696.8
2817.52
26952.1
3999.48
20163.8
4795.84
9573.78
-2427.07
3190.05
-1929.38
2325.03
-2544.24
603.663
-2447.86
-1764.08
-1389.38
-3587.87
-3087.27
-4225.5
-7252.1
-4130.86
-11355.3
-3553.96
-15847.2
-2893
-20048.4
-2415.78
-22791.2
-2231.1
-21315.8
-1426.24
-2001.65
-799.077
18578.8
-171.955
24866.6
827.889
26696.9
2171.36
25608.6
3548.62
18786.6
4983.74
8138.66
-2659.3
3275.6
-1475.68
2343.37
-1612.01
708.259
-812.747
-1523.24
842.119
-3442.15
-1168.36
-4071.48
-6622.77
-3923.21
-11503.6
-3344.76
-16425.7
-2886.29
-20506.8
-2755.67
-22921.8
-3026.96
-21044.5
-2482.91
-2545.69
-1476.01
17571.9
-794.834
24185.4
-25.7555
25927.8
1334.88
24248
2850.26
17271.2
5203.66
5785.26
-4044.15
3319.36
-977.163
2426.74
-719.393
1169.68
444.319
-993.884
3005.68
-3256.41
1094.17
-3878.6
-6000.59
-3678.5
-11703.6
-3167.52
-16936.7
-3024.69
-20649.7
-3282.33
-22664.2
-3963
-20363.8
-3676.22
-2832.47
-2386.99
16282.6
-1669.46
23467.9
-1063.68
25322.1
303.972
22880.4
1878.31
15696.8
4882.16
2781.41
-6367.84
3409.94
-440.45
2626.91
63.6382
1635.22
1436
-366.369
5007.27
-2921.89
3649.68
-3636.32
-5286.16
-3417.99
-11922
-3063.31
-17291.4
-3310.27
-20402.7
-3954.39
-22020
-5033.82
-19284.4
-5057.16
-2809.12
-3706.38
14931.8
-2817.38
22578.9
-2186.85
24691.5
-972.691
21666.2
1521.32
13202.8
3463.15
839.578
2022.33
3651.1
94.5627
2951.21
763.525
1978.92
2408.3
140.976
6845.22
-2483.8
6274.46
-3359.1
-4410.86
-3171.56
-12109.5
-3064.41
-17398.5
-3713.55
-19753.6
-4705.31
-21028.3
-6163.54
-17826.2
-6503.81
-2468.85
-5210.41
13638.4
-4070.34
21438.8
-3416.13
24037.3
-2354.19
20604.3
-758.001
11606.7
-4378.11
4459.69
9031.28
4037.55
602.039
3344.13
1456.94
2210.7
3541.73
430.439
8625.48
-2102.34
8807.23
-3073.94
-3439.25
-2948.08
-12235.4
-3165.37
-17181.2
-4165.48
-18753.4
-5462.02
-19731.7
-7282.25
-16005.9
-7862.5
-1888.6
-6682.55
12458.5
-5417.47
20173.7
-4681.94
23301.8
-4197.97
20120.3
-6516.5
13925.2
-12133.3
10076.5
9259.41
4479.94
1087.5
3728.28
2208.6
2326.48
4943.53
493.021
10458.9
-1839.48
11139.7
-2801.06
-2477.67
-2764.96
-12271.5
-3347.94
-16598.2
-4608.74
-17492.6
-6197.7
-18142.8
-8347.93
-13855.7
-9043.82
-1192.71
-8015.3
11430
-6790.23
18948.7
-6140.62
22652.2
-7046.1
21025.8
-10436
17315.1
-11583
11223.4
3311.91
4830.52
1550.68
3986.42
3052.7
2266.82
6663.13
326.421
12399.3
-1716.39
13182.5
-2564.07
-1629.99
-2648.77
-12186.8
-3574.27
-15672.7
-4986.93
-16080
-6908.62
-16221.1
-9361.51
-11402.8
-10029
-525.194
-9124.1
10525
-8194.25
18018.8
-8122.65
22580.6
-9746.42
22649.5
-11070.4
18639.1
-8238.48
8391.49
-2552.94
4922.17
1994.14
3940.6
4034.28
1895.78
8707.94
-112.959
14408.1
-1756.29
14825.9
-2381.46
-1004.82
-2616.68
-11951.6
-3799.89
-14489.5
-5255.62
-14624.3
-7589.18
-13887.5
-10398.8
-8593.21
-11117
193.05
-10379.5
9787.55
-9885.86
17525.2
-10407.1
23101.8
-12142
24384.4
-13494.6
19991.8
-13652.6
8549.47
-5356.94
4592.08
2484.54
3330.32
5296.04
1005.61
11032.6
-884.76
16298.5
-2027.9
15969
-2221.56
-811.156
-2642.64
-11530.5
-3968.35
-13163.8
-5376.19
-13216.4
-8167.97
-11095.7
-11407.1
-5354.05
-12474
1259.94
-12116.3
9429.84
-11995
17403.8
-12805.9
23912.7
-14525.9
26104.4
-15740.8
21206.7
-15024.4
7833.07
-7073.86
3637.92
3276.76
1802.97
7130.99
-539.6
13375.2
-1981.97
17740.8
-2465.56
16452.6
-2086.36
-1190.35
-2675.75
-10941.1
-4011.82
-11827.7
-5302.03
-11926.2
-8462.78
-7935
-12059.7
-1757.15
-13652.7
2852.95
-13918
9695.1
-14153
17638.9
-14795.6
24555.4
-15146.3
26455.1
-12540.8
18601.3
-6841.27
2133.53
-6085.37
1543.42
4839.7
-792.675
9467.08
-2471.9
15054.4
-3258.25
18527.2
-2895.33
16089.7
-2039.5
-2046.18
-2707.49
-10273.1
-3882.93
-10652.3
-4967.03
-10842.1
-8153.78
-4748.26
-11846.8
1935.93
-13952.5
4958.61
-14931.1
10673.7
-15457.7
18165.4
-15454.8
24552.5
-13606.7
24607
-7476.19
12470.8
-1042.88
-4299.78
-9689.92
-1625.31
6641.75
-3521.39
11363.2
-4314.78
15847.8
-4491.07
18703.5
-3191.28
14789.9
-2109.4
-3128.06
-2762.87
-9619.64
-3594.08
-9821.1
-4325.36
-10110.8
-6913.56
-2160.06
-10476.2
5498.58
-13046.1
7528.51
-14524.5
12152
-15067.1
18708.1
-14163.1
23648.5
-10518.8
20962.7
-3744.16
5696.08
666.134
-8710.07
-11410.1
-4535.73
7759.73
-5565.2
12392.6
-5877.44
16160.1
-5442.66
18268.7
-3200.35
12547.6
-2149.75
-4178.66
-2796.31
-8973.07
-3216.91
-9400.49
-3527.09
-9800.64
-5057.75
-629.405
-8276.86
8717.7
-11112.9
10364.5
-12771.3
13810.4
-13081.3
19018.1
-11432.9
22000.1
-6906.94
16436.8
-1047.08
-163.781
2124.6
-11881.7
-12430.5
-6377.31
8495.45
-7069.03
13084.4
-7161.27
16252.3
-6040.31
17147.7
-3015.69
9522.97
-2081.54
-5112.82
-2713.72
-8340.89
-2834.58
-9279.63
-2767.83
-9867.4
-3077.36
-319.87
-5742.89
11383.2
-8576.36
13198
-10217.1
15451.2
-10264.8
19065.8
-8256.99
19992.2
-3361.57
11541.4
1524.41
-5049.75
3592.53
-13949.9
-12526.6
-8003.27
9096.57
-8585.79
13666.9
-8211.88
15878.4
-6062.6
14998.4
-2746.84
6207.21
-2082.51
-5777.15
-2506.58
-7916.82
-2495.32
-9290.88
-2229.45
-10133.3
-1496.63
-1052.69
-3317.03
13203.6
-6023.78
15904.7
-7781.74
17209.1
-7764.13
19048.2
-5655.55
17883.7
-715.804
6601.64
3365.18
-9130.74
4677.15
-15261.8
-12146.4
-10484.3
-9968.22
-8377.39
-5339.76
-2552.86
-2130.15
-2308.99
-2208.54
-1881.69
-854.443
-1014.44
-2471.9
-3844.53
-3994.83
-2488.74
1211
4250.09
5171.56
258.721
-647.056
669.026
-1416.89
972.599
-1872.04
1136.31
-2010.96
1215.84
-1916.35
1263.81
-1752.02
1253.51
-1591.82
1246.44
-1447.52
1222.39
-1309.79
1182.5
-1173.03
1124.87
-1034.58
1045.97
-891.293
941.441
-742.323
805.885
-586.731
634.414
-426.213
433.59
-274.89
234.355
-165.221
86.7989
-119.733
32.0017
-122.188
0.559378
395.566
-1042.62
803.273
-1824.6
840.41
-1909.18
601.958
-1772.51
303.047
-1617.44
46.7425
-1495.72
-162.369
-1382.71
-349.522
-1260.37
-525.958
-1133.35
-696.674
-1002.31
-863.564
-867.692
-1025.88
-728.983
-1179.22
-588.977
-1314.08
-451.872
-1411.31
-328.99
-1431.32
-254.876
-1313.96
-282.586
-1010.18
-423.516
-543.197
-589.175
-542.638
132.556
-1175.18
266.264
-1958.31
154.544
-1797.46
-67.6266
-1550.34
-287.253
-1397.82
-487.335
-1295.64
-677.863
-1192.18
-863.267
-1074.97
-1047.13
-949.49
-1232.31
-817.135
-1417.4
-682.603
-1593.09
-553.299
-1735.9
-446.173
-1801.45
-386.321
-1733.81
-396.632
-1497.22
-491.461
-1109.97
-669.846
-648.565
-884.918
-237.38
-1000.36
-780.018
-82.965
-1092.22
-122.989
-1918.28
-160.601
-1759.85
-174.388
-1536.56
-191.81
-1380.4
-229.766
-1257.69
-268.913
-1153.03
-296.626
-1047.26
-307.207
-938.91
-299.079
-825.264
-272.58
-709.103
-229.867
-596.012
-174.68
-501.361
-106.565
-454.437
-21.6039
-481.595
73.422
-586.488
143.467
-739.891
145.305
-886.758
73.7992
-928.857
-706.218
-145.48
-946.743
-131.132
-1932.64
-17.8348
-1873.15
78.24
-1632.64
145.458
-1447.62
199.262
-1311.5
255.851
-1209.63
323.766
-1115.18
409.293
-1024.44
518.148
-934.123
653.002
-843.961
810.229
-753.242
971.928
-663.062
1100.16
-582.672
1146.54
-527.975
1076.26
-516.211
886.294
-549.926
603.127
-603.591
290.26
-615.991
-415.959
-72.0181
-874.725
-42.9862
-1961.67
49.24
-1965.38
123.974
-1707.37
194.474
-1518.12
266.259
-1383.28
338.183
-1281.55
408.403
-1185.4
476.852
-1092.89
545.092
-1002.36
615.304
-914.172
689.967
-827.906
769.492
-742.586
844.599
-657.778
892.754
-576.129
880.507
-503.964
780.27
-449.688
581.703
-405.022
311.125
-345.412
-104.833
72.9623
-947.688
111.033
-1999.74
160.456
-2014.8
209.199
-1756.12
267.319
-1576.24
329.113
-1445.08
391.44
-1343.88
450.105
-1244.06
503.488
-1146.27
549.025
-1047.9
584.655
-949.802
609.323
-852.575
623.625
-756.889
628.397
-662.551
621.71
-569.441
593.061
-475.315
524.573
-381.199
396.728
-277.177
201.335
-150.018
96.5018
256.937
-1204.62
342.936
-2085.74
358.801
-2030.67
386.083
-1783.4
442.172
-1632.33
506.588
-1509.49
576.483
-1413.77
645.601
-1313.18
712.129
-1212.8
769.561
-1105.33
812.541
-992.78
835.72
-875.752
835.385
-756.552
809.09
-636.255
755.594
-515.944
672.97
-392.689
557.426
-265.655
402.696
-122.444
201.7
50.9801
298.202
379.367
-1583.99
453.063
-2159.44
425.918
-2003.52
439.432
-1796.91
499.842
-1692.74
571.954
-1581.6
657.607
-1499.43
745.87
-1401.44
833.595
-1300.53
907.935
-1179.67
962.327
-1047.17
990.739
-904.166
990.889
-756.702
959.287
-604.654
890.41
-447.067
776.109
-278.389
585.274
-74.8204
354.712
108.117
168.335
237.357
466.537
298.244
-1882.23
240.682
-2101.87
169.304
-1932.14
153.911
-1781.52
172.013
-1710.84
199.063
-1608.65
240.456
-1540.82
284.028
-1445.02
322.983
-1339.48
341.781
-1198.47
334.907
-1040.3
299.715
-868.974
240.075
-697.062
157.304
-521.882
54.5564
-344.318
-46.3107
-177.52
-78.2597
-42.8699
-94.7965
124.655
-134.699
277.259
331.838
37.1164
-1919.35
-112.706
-1952.05
-215.6
-1829.25
-302.008
-1695.11
-383.462
-1629.39
-465.002
-1527.11
-544.403
-1461.42
-624.055
-1365.36
-706.736
-1256.8
-795.919
-1109.29
-894.467
-941.751
-1001.86
-761.581
-1113.41
-585.511
-1219.5
-415.795
-1304.33
-259.487
-1342.67
-139.179
-1302.2
-83.3408
-1081.66
-95.8927
-616.233
-188.164
-284.395
-122.966
-1796.38
-217.838
-1857.18
-312.55
-1734.54
-435.638
-1572.02
-563.435
-1501.59
-710.133
-1380.41
-869.945
-1301.6
-1039.09
-1196.22
-1204.81
-1091.08
-1354.64
-959.453
-1483.79
-812.596
-1590.9
-654.475
-1673.29
-503.117
-1712.94
-376.14
-1673.4
-299.027
-1518.16
-294.415
-1234.81
-366.699
-814.017
-516.681
-331.573
-670.606
-615.968
-41.8988
-1754.48
-28.3472
-1870.73
-33.6062
-1729.28
-64.2652
-1541.36
-95.8414
-1470.01
-142.819
-1333.43
-201.248
-1243.17
-266.807
-1130.65
-326.347
-1031.54
-360.805
-924.994
-356.255
-817.145
-305.142
-705.586
-210.953
-597.304
-83.4119
-503.68
62.0121
-444.448
203.648
-436.049
308.346
-471.396
321.855
-530.189
200.701
-549.45
-415.268
61.4122
-1815.89
101.444
-1910.76
148.898
-1776.73
192.148
-1584.6
236.401
-1514.26
281.548
-1378.58
324.525
-1286.15
369.471
-1175.6
415.63
-1077.7
471.299
-980.66
542.834
-888.677
637.208
-799.958
752.752
-712.846
874.781
-625.707
968.929
-538.594
987.704
-454.824
896.435
-380.125
677.916
-311.669
359.921
-231.453
-55.3473
111.431
-1927.32
125.289
-1924.61
173.176
-1824.61
226.468
-1637.89
285.082
-1572.88
345.557
-1439.05
410.441
-1351.03
479.234
-1244.39
551.489
-1149.95
624.822
-1053.99
696.46
-960.313
762.493
-865.99
818.291
-768.644
856.593
-664.008
866.728
-548.727
832.673
-420.768
742.395
-289.845
571.291
-140.564
312.818
27.0221
257.471
102.649
-2029.97
85.8533
-1907.81
121.685
-1860.44
165.463
-1681.67
215.849
-1623.26
271.501
-1494.7
333.639
-1413.17
401.794
-1312.54
478.042
-1226.2
561.53
-1137.48
651.533
-1050.31
742.045
-956.5
820.956
-847.552
866.105
-709.156
848.284
-530.904
752.33
-324.813
597.874
-135.387
388.123
69.1903
197.172
217.976
454.643
-0.26503
-2029.7
-58.4454
-1849.63
-81.1444
-1837.74
-86.0435
-1676.77
-88.3201
-1620.98
-72.2625
-1510.76
-49.7706
-1435.66
-13.3432
-1348.97
33.7023
-1273.24
92.8308
-1196.61
161.957
-1119.44
235.464
-1030.01
298.93
-911.017
323.72
-733.945
273.058
-480.241
147.676
-199.428
33.0225
-20.7296
3.85507
98.3623
-51.753
273.586
402.89
-177.583
-1852.12
-375.884
-1651.33
-539.015
-1674.61
-662.843
-1552.94
-777.283
-1506.54
-860.725
-1427.31
-931.357
-1365.03
-981.896
-1298.43
-1018.4
-1236.73
-1039.54
-1175.47
-1046.34
-1112.64
-1036.96
-1039.38
-1006.79
-941.191
-944.298
-796.434
-833.795
-590.743
-676.366
-356.857
-526.593
-170.501
-401.078
-27.1518
-248.706
121.216
154.183
-213.124
-1639
-479.697
-1384.76
-760.255
-1394.05
-1003.33
-1309.86
-1238.78
-1271.09
-1445.13
-1220.97
-1631.25
-1178.9
-1793.25
-1136.43
-1933.88
-1096.1
-2052.75
-1056.6
-2147.93
-1017.47
-2211.03
-976.274
-2222.96
-929.264
-2147.67
-871.72
-1939.34
-799.078
-1585.9
-710.296
-1148.31
-608.092
-695.359
-480.099
-268.157
-305.985
-113.974
-663.995
-1073.75
-1492.8
-1827.67
-2123.76
-2369.73
-2573.63
-2735.06
-2856.16
-2937.75
-2980.22
-2981.49
-2935.76
-2832.48
-2656.55
-2391.85
-2024.94
-1530.04
-861.026
-663.983
1638.98
-1073.72
1384.74
-1492.76
1394.03
-1827.61
1309.84
-2123.68
1271.07
-2369.63
1220.95
-2573.51
1178.88
-2734.92
1136.41
-2855.99
1096.07
-2937.57
1056.57
-2980.01
1017.44
-2981.26
976.247
-2935.5
929.237
-2832.2
871.702
-2656.28
799.081
-2391.62
710.339
-2024.8
608.181
-1530
480.199
-861.059
306.056
113.941
-213.109
1852.09
-479.676
1651.3
-760.224
1674.58
-1003.3
1552.91
-1238.74
1506.51
-1445.08
1427.29
-1631.21
1365
-1793.21
1298.41
-1933.86
1236.72
-2052.74
1175.46
-2147.92
1112.62
-2211.01
1039.34
-2222.87
941.099
-2147.45
796.276
-1938.95
590.586
-1585.49
356.877
-1148
170.689
-695.07
27.2659
-267.925
-121.092
-153.984
-177.628
2029.71
-375.95
1849.62
-539.115
1837.74
-662.989
1676.78
-777.472
1621
-860.969
1510.78
-931.658
1435.69
-982.264
1349.01
-1018.85
1273.3
-1040.07
1196.68
-1046.97
1119.51
-1037.69
1030.05
-1007.56
910.975
-945.04
733.75
-834.377
479.921
-676.715
199.212
-526.829
20.7998
-401.398
-98.1695
-248.784
-273.71
-402.768
-0.361846
2030.07
-58.5975
1907.86
-81.3723
1860.52
-86.3531
1681.76
-88.7158
1623.36
-72.7476
1494.81
-50.3515
1413.29
-14.0217
1312.68
32.9239
1226.35
91.9477
1137.65
160.959
1050.5
234.333
956.671
297.633
847.673
322.218
709.162
271.39
530.747
146.081
324.515
32.0012
134.869
3.45281
-69.6316
-52.0306
-218.232
-454.799
102.65
1927.42
85.7899
1924.71
121.59
1824.71
165.345
1638
215.713
1572.99
271.355
1439.16
333.487
1351.15
401.648
1244.51
477.911
1150.09
561.425
1054.13
651.466
960.453
742.022
866.113
820.961
768.731
866.085
664.035
848.151
548.677
752.034
420.63
597.288
289.611
387.43
140.222
196.723
-27.5298
-258.076
111.572
1815.84
125.361
1910.92
173.244
1776.83
226.542
1584.71
285.177
1514.35
345.653
1378.69
410.548
1286.26
479.337
1175.72
551.597
1077.83
624.933
980.795
696.576
888.809
762.596
800.092
818.34
712.986
856.545
625.83
866.57
538.651
832.406
454.793
742.022
379.994
570.902
311.341
312.527
230.843
54.4511
61.5709
1754.27
101.558
1870.93
149.03
1729.35
192.355
1541.38
236.691
1470.01
281.955
1333.42
325.085
1243.13
370.215
1130.59
416.574
1031.47
472.418
924.948
544.059
817.167
638.414
705.735
753.779
597.62
875.451
504.157
969.105
444.996
987.49
436.408
896.105
471.378
677.654
529.791
359.821
548.675
414.272
-41.4911
1795.76
-27.6287
1857.07
-32.5279
1734.25
-62.7821
1571.63
-93.9545
1501.18
-140.485
1379.95
-198.449
1301.09
-263.51
1195.65
-322.538
1090.5
-356.481
958.892
-351.439
812.127
-299.859
654.156
-205.21
502.973
-77.2837
376.233
68.2403
299.475
209.41
295.242
313.124
367.666
324.963
517.953
201.974
671.665
616.246
-123.169
1918.93
-217.759
1951.66
-312.372
1828.86
-435.459
1694.72
-563.258
1628.98
-710.02
1526.71
-869.915
1460.98
-1039.16
1364.89
-1204.92
1256.26
-1354.72
1108.69
-1483.73
941.134
-1590.55
760.973
-1672.47
584.895
-1711.47
415.231
-1671.15
259.15
-1515.21
139.308
-1231.7
84.1545
-811.266
97.5147
-330.008
190.407
286.238
36.3848
1882.55
-113.475
2101.52
-216.476
1931.86
-303.13
1781.37
-384.889
1710.74
-466.787
1608.61
-546.599
1540.8
-626.697
1444.99
-709.829
1339.39
-799.436
1198.3
-898.351
1040.05
-1006.05
868.674
-1117.85
696.698
-1224.1
521.48
-1308.88
343.933
-1346.77
177.202
-1306.11
43.4903
-1084.01
-124.585
-616.776
-276.822
-330.538
297.776
1584.77
239.788
2159.51
168.154
2003.5
152.478
1797.05
170.24
1692.98
196.949
1581.9
237.97
1499.78
281.148
1401.81
319.665
1300.87
338.009
1179.95
330.693
1047.37
295.104
904.264
235.113
756.69
152.078
604.516
49.2397
446.773
-51.3424
277.787
-80.3617
72.5141
-96.6674
-108.276
-135.993
-237.494
-466.531
379.716
1205.06
453.349
2085.88
426.04
2030.81
439.47
1783.62
499.859
1632.59
571.994
1509.77
657.708
1414.06
746.049
1313.47
833.846
1213.08
908.239
1105.56
962.665
992.944
991.101
875.83
991.258
756.534
959.644
636.131
890.708
515.711
776.158
392.337
583.502
265.172
353.327
121.901
167.55
-51.7152
-298.982
257.607
947.451
343.818
1999.67
359.6
2015.03
386.84
1756.38
442.961
1576.47
507.446
1445.29
577.433
1344.08
646.654
1244.26
713.279
1146.45
770.791
1048.05
813.823
949.912
837.02
852.634
836.67
756.884
810.321
662.481
756.718
569.313
673.921
475.135
558.129
380.965
403.178
276.852
201.961
149.503
-97.0209
73.5202
873.935
111.7
1961.49
161.038
1965.69
209.727
1707.7
267.859
1518.34
329.693
1383.46
392.076
1281.7
450.808
1185.53
504.259
1093
549.853
1002.46
585.518
914.249
610.185
827.971
624.4
742.67
629.005
657.88
622.092
576.228
593.249
503.979
524.657
449.558
396.777
404.733
201.339
344.943
104.318
-71.4322
945.369
-42.3132
1932.37
50.0035
1873.38
124.702
1633
195.095
1447.95
266.78
1311.77
338.591
1209.89
408.634
1115.49
476.836
1024.8
544.751
934.551
614.487
844.515
688.641
753.82
767.738
663.573
842.411
583.209
890.467
528.173
878.637
515.811
779.115
549.08
581.193
602.656
310.869
615.267
415.187
-144.101
1089.47
-129.845
1918.12
-16.7575
1760.29
79.8124
1536.43
147.608
1380.16
201.772
1257.61
258.554
1153.11
326.522
1047.52
411.952
939.378
520.551
825.957
654.922
710.146
811.474
597.273
972.327
502.721
1099.66
455.883
1145.55
482.275
1075.6
585.766
886.772
737.91
604.58
884.848
291.891
927.957
707.077
-76.2678
1165.74
-113.424
1955.28
-152.183
1799.05
-167.528
1551.78
-183.264
1395.9
-217.488
1291.84
-252.924
1188.55
-277.155
1071.76
-284.363
946.588
-272.864
814.459
-243.003
680.286
-197.285
551.557
-139.895
445.333
-70.7082
386.698
13.0843
398.485
103.614
495.237
166.084
675.442
159.349
891.583
80.5757
1006.73
787.653
146.336
1019.41
297.549
1804.07
195.875
1900.73
-24.9241
1772.58
-246.572
1617.54
-447.783
1493.05
-637.846
1378.61
-820.887
1254.8
-1000.87
1126.57
-1181.6
995.197
-1362.1
860.777
-1533.4
722.859
-1672.29
584.224
-1734.63
449.045
-1665.17
329.02
-1429.4
259.469
-1048.03
294.069
-600.62
444.173
-212.866
618.977
574.788
417.079
602.329
850.578
1370.57
908.825
1842.48
679.707
2001.7
380.391
1916.86
121.054
1752.39
-89.2158
1588.88
-276.564
1442.15
-453.818
1303.82
-626.157
1167.54
-795.415
1030.04
-960.786
888.23
-1117.87
741.307
-1257.06
588.234
-1358.71
430.667
-1382.38
283.139
-1267.53
179.215
-966.993
143.633
-509.209
161.185
65.5777
271.096
708.37
1036.58
1216.3
1303.58
1351.47
1344.92
1341.56
1318.62
1278.1
1218.41
1135.98
1026.28
883.712
703.183
491.441
280.895
123.974
60.7199
)
;

boundaryField
{
    outletWall
    {
        type            calculated;
        value           nonuniform List<scalar> 
60
(
18623.8
3429.46
-11739.8
-23183.2
-30875.9
-31043
-27747.2
-20568.5
-2540.1
18488.6
20038.1
17007.8
13397.7
10719.1
9710.04
11211.2
12182.5
9065.83
5022.03
2906.1
10533.1
7402.15
5641.59
3417.75
-176.734
-3106.37
-4430.13
-5082.48
-5365.63
-5293.7
-4965.41
-4545.03
-4186.11
-3946.65
-3817.88
-3729.3
-3582.41
-3324.22
-3081.45
-2498.87
5013.08
-11410.1
-16183.3
-12169.8
2901.91
16377.6
19198.5
18581.8
17362.2
13363.6
-2079.93
-10460.1
-9391.33
-7737.99
-6199.86
3420.31
11960.8
14287.6
13150.8
9047.8
)
;
    }
    fineWalls
    {
        type            calculated;
        value           uniform 0;
    }
    fineFrontAndBack
    {
        type            calculated;
        value           nonuniform List<scalar> 
960
(
-1.16352e-12
-1.99453e-12
7.63055e-13
9.89995e-13
-1.03231e-12
-1.63236e-13
-4.01486e-13
-1.41053e-13
-6.14035e-12
-1.95136e-12
-2.32141e-12
-6.69319e-12
8.91117e-14
-4.94705e-14
7.1028e-13
-1.28863e-13
-9.62156e-13
-1.26322e-11
-3.0769e-12
-3.7514e-12
-7.03526e-13
-3.87134e-13
-6.65193e-14
1.05519e-13
1.74898e-13
2.31009e-13
3.31505e-12
2.63362e-13
2.44473e-13
2.07741e-13
1.52679e-13
8.25079e-14
5.27951e-16
-9.14643e-14
-1.91491e-13
-3.05365e-13
-4.09464e-13
-5.66271e-13
-7.21435e-13
-9.89946e-13
-2.43488e-11
-2.55469e-12
-1.75757e-12
-9.14778e-13
1.74235e-11
5.24423e-12
6.57965e-12
2.91602e-12
1.17839e-10
3.28964e-11
4.73295e-11
5.80417e-11
-3.41605e-12
-7.41106e-13
-7.64358e-13
4.92261e-12
2.26313e-12
3.17726e-12
4.30994e-12
3.31852e-11
1.18557e-12
9.63017e-13
8.41081e-13
7.07142e-13
5.99795e-13
4.84867e-13
3.88395e-13
3.06625e-13
2.37732e-13
1.86417e-13
1.61879e-13
1.54987e-13
1.58314e-13
7.96558e-12
1.95017e-13
2.22467e-13
2.07683e-13
2.54129e-13
4.42103e-13
6.54217e-13
3.24566e-12
3.17928e-12
2.02196e-11
5.16618e-12
4.87186e-12
2.27273e-11
6.387e-12
6.49279e-12
2.74856e-11
7.04732e-12
6.52999e-12
4.19124e-11
9.59876e-12
8.53166e-12
6.38029e-12
1.78159e-11
1.47266e-12
2.15145e-12
4.77942e-12
6.6577e-12
-1.40029e-11
-1.49408e-11
-1.45636e-11
-1.35256e-11
-4.07259e-12
-2.62743e-12
-8.59842e-12
-1.35252e-11
-1.58453e-11
-1.57129e-11
-1.33848e-11
-1.09645e-11
-1.48496e-11
-2.38611e-11
-3.2404e-11
-2.3936e-11
-1.03446e-11
1.81464e-12
-6.26943e-12
-1.6195e-11
-1.54235e-11
-1.29033e-11
-1.08913e-11
-5.38305e-12
-1.11722e-11
-2.0098e-11
-2.5666e-11
-2.71152e-11
-2.514e-11
-2.01267e-11
-1.28923e-11
-1.48492e-11
-2.37615e-11
-3.23387e-11
-2.44957e-11
-1.14655e-11
4.41431e-13
-4.44624e-12
-1.40132e-11
-1.1918e-11
-8.57499e-12
-1.04468e-11
-1.02539e-11
-1.60839e-11
-2.35633e-11
-2.69606e-11
-2.58143e-11
-2.22487e-11
-1.70568e-11
-1.13748e-11
-1.46124e-11
-2.37147e-11
-3.23044e-11
-2.50806e-11
-1.27412e-11
-7.10579e-13
-1.51147e-11
-9.01941e-12
-6.33373e-12
-3.17594e-12
-9.48405e-12
-1.34725e-11
-1.85198e-11
-2.40682e-11
-2.58588e-11
-2.37624e-11
-1.99486e-11
-1.43257e-11
-9.68323e-12
-1.43134e-11
-2.3944e-11
-3.23579e-11
-2.54917e-11
-1.38304e-11
-1.78344e-12
-1.74624e-11
-1.4224e-12
9.22154e-13
3.06728e-12
-8.12334e-12
-1.48388e-11
-1.82094e-11
-2.22657e-11
-2.3753e-11
-2.19143e-11
-1.82504e-11
-1.21011e-11
-9.02312e-12
-1.48193e-11
-2.46579e-11
-3.2471e-11
-2.55881e-11
-1.46153e-11
-2.7558e-12
-1.59589e-11
6.22744e-12
7.66951e-12
8.66989e-12
-6.51549e-12
-1.47167e-11
-1.65025e-11
-1.9906e-11
-2.19681e-11
-2.07339e-11
-1.68013e-11
-9.72587e-12
-9.18996e-12
-1.65533e-11
-2.57058e-11
-3.25021e-11
-2.548e-11
-1.49239e-11
-4.12227e-12
-3.77268e-12
1.10909e-11
1.18782e-11
1.2534e-11
-5.46241e-12
-1.50201e-11
-1.45032e-11
-1.77983e-11
-2.07083e-11
-1.99406e-11
-1.5172e-11
-6.46751e-12
-9.31313e-12
-1.93677e-11
-2.71107e-11
-3.24989e-11
-2.4968e-11
-1.48243e-11
-1.07091e-11
1.78251e-11
1.23333e-11
1.29595e-11
1.42252e-11
-5.0802e-12
-1.61544e-11
-1.28275e-11
-1.63271e-11
-1.98144e-11
-1.92655e-11
-1.35279e-11
-2.07983e-12
-7.65946e-12
-2.24912e-11
-2.82687e-11
-3.19169e-11
-2.45022e-11
-1.29459e-11
2.25136e-11
5.59025e-11
1.13338e-11
1.2204e-11
1.42624e-11
-5.3413e-12
-1.75469e-11
-1.18721e-11
-1.63565e-11
-1.9247e-11
-1.85873e-11
-1.24165e-11
2.54498e-12
-1.60339e-12
-2.74311e-11
-3.01245e-11
-3.03536e-11
-2.1482e-11
-4.54907e-12
1.45975e-11
1.63064e-11
9.73806e-12
1.08269e-11
1.33651e-11
-6.13708e-12
-1.87038e-11
-1.11102e-11
-1.53424e-11
-1.90128e-11
-1.77834e-11
-1.2026e-11
4.0294e-12
5.9108e-12
-3.00324e-11
-3.07406e-11
-2.8394e-11
-1.58018e-11
-7.4759e-12
-3.53979e-13
3.51205e-11
8.09026e-12
9.4112e-12
1.20155e-11
-7.57197e-12
-1.9296e-11
-6.52122e-12
-1.03229e-11
-1.88877e-11
-1.69158e-11
-1.14325e-11
-1.16601e-12
-6.83245e-12
-2.10371e-11
-2.48864e-11
-2.29542e-11
-1.88111e-11
-1.17238e-11
4.90258e-11
1.72197e-10
7.16394e-12
8.62178e-12
1.02223e-11
-1.04272e-11
-1.89484e-11
-8.01816e-12
-1.61577e-11
-1.82301e-11
-1.64989e-11
-1.03029e-11
2.27623e-12
-1.05625e-12
-1.26415e-11
-1.9028e-11
-2.21421e-11
-2.04434e-11
4.32832e-12
4.86395e-11
3.03976e-11
6.62328e-12
8.00939e-12
6.40652e-12
-1.47116e-11
-1.68895e-11
-7.27696e-12
-1.71242e-11
-1.72073e-11
-1.6353e-11
-9.43138e-12
4.21773e-12
1.2826e-12
-8.84803e-12
-1.62869e-11
-1.97568e-11
-1.13262e-11
1.00751e-11
3.73588e-13
-3.91158e-11
5.98515e-12
5.54581e-12
-1.70622e-12
-1.72591e-11
-1.26195e-11
-7.17605e-12
-1.8721e-11
-1.60703e-11
-1.64163e-11
-8.91693e-12
6.4394e-12
5.67732e-12
-2.83906e-12
-9.00762e-12
-8.86756e-12
1.19992e-12
7.9513e-12
-9.60191e-12
-5.21862e-12
4.75414e-12
-7.05491e-13
-9.27698e-12
-1.45779e-11
-6.53602e-12
-8.13656e-12
-1.91173e-11
-1.53198e-11
-1.6496e-11
-9.37911e-12
7.18163e-12
9.76604e-12
5.60034e-12
2.70375e-12
4.58675e-12
9.30607e-12
2.521e-12
-1.81215e-11
-1.64671e-11
3.91409e-12
-4.11291e-12
-8.54347e-12
-6.70443e-12
-2.62264e-13
-1.07949e-11
-1.80366e-11
-1.50895e-11
-1.64711e-11
-1.15372e-11
3.32265e-12
9.36203e-12
1.06686e-11
1.11205e-11
1.20342e-11
9.50139e-12
-4.4615e-12
-1.68406e-11
-1.52546e-11
7.34747e-12
8.88484e-13
-8.18457e-14
3.39801e-12
3.98484e-12
-1.5656e-11
-1.63691e-11
-1.51442e-11
-1.63068e-11
-1.43475e-11
-3.77234e-12
4.15544e-12
9.60875e-12
1.28256e-11
1.24419e-11
4.9662e-12
-1.06478e-11
-1.43715e-11
-1.40176e-11
1.28402e-11
9.71658e-12
1.04283e-11
1.18528e-11
4.23394e-12
-2.03097e-11
-1.53628e-11
-1.51841e-11
-1.60784e-11
-1.62291e-11
-1.05368e-11
-3.54337e-12
3.52942e-12
9.09056e-12
9.38066e-12
1.04419e-12
-1.32138e-11
-1.59169e-11
-1.38073e-11
1.86094e-11
1.872e-11
1.9584e-11
1.63367e-11
4.31186e-13
-2.06326e-11
-1.53438e-11
-1.51255e-11
-1.58879e-11
-1.68305e-11
-1.49717e-11
-1.06011e-11
-4.59251e-12
2.26464e-12
5.47356e-12
-6.91806e-13
-1.53541e-11
-1.6796e-11
-1.3814e-11
2.18864e-11
2.23748e-11
1.98493e-11
1.03626e-11
-8.51287e-12
-1.8881e-11
-1.56266e-11
-1.5066e-11
-1.57674e-11
-1.68366e-11
-1.72469e-11
-1.6034e-11
-1.35966e-11
-9.2015e-12
-4.27847e-12
-4.58176e-12
-1.73382e-11
-1.68019e-11
-1.23288e-11
1.16352e-12
1.99453e-12
-7.63055e-13
-9.89995e-13
1.03231e-12
1.63236e-13
4.01486e-13
1.41053e-13
6.14035e-12
1.95136e-12
2.32141e-12
6.69319e-12
-8.91117e-14
4.94705e-14
-7.1028e-13
1.28863e-13
9.62156e-13
1.26322e-11
3.0769e-12
3.7514e-12
7.03526e-13
3.87134e-13
6.65193e-14
-1.05519e-13
-1.74898e-13
-2.31009e-13
-3.31505e-12
-2.63362e-13
-2.44473e-13
-2.07741e-13
-1.52679e-13
-8.25079e-14
-5.27951e-16
9.14643e-14
1.91491e-13
3.05365e-13
4.09464e-13
5.66271e-13
7.21435e-13
9.89946e-13
2.43488e-11
2.55469e-12
1.75757e-12
9.14778e-13
-1.74235e-11
-5.24423e-12
-6.57965e-12
-2.91602e-12
-1.17839e-10
-3.28964e-11
-4.73295e-11
-5.80417e-11
3.41605e-12
7.41106e-13
7.64358e-13
-4.92261e-12
-2.26313e-12
-3.17726e-12
-4.30994e-12
-3.31852e-11
-1.18557e-12
-9.63017e-13
-8.41081e-13
-7.07142e-13
-5.99795e-13
-4.84867e-13
-3.88395e-13
-3.06625e-13
-2.37732e-13
-1.86417e-13
-1.61879e-13
-1.54987e-13
-1.58314e-13
-7.96558e-12
-1.95017e-13
-2.22467e-13
-2.07683e-13
-2.54129e-13
-4.42103e-13
-6.54217e-13
-3.24566e-12
-3.17928e-12
-2.02196e-11
-5.16618e-12
-4.87186e-12
-2.27273e-11
-6.387e-12
-6.49279e-12
-2.74856e-11
-7.04732e-12
-6.52999e-12
-4.19124e-11
-9.59876e-12
-8.53166e-12
-6.38029e-12
-1.78159e-11
-1.47266e-12
-2.15145e-12
-4.77942e-12
-6.6577e-12
1.40029e-11
1.49408e-11
1.45636e-11
1.35256e-11
4.07259e-12
2.62743e-12
8.59842e-12
1.35252e-11
1.58453e-11
1.57129e-11
1.33848e-11
1.09645e-11
1.48496e-11
2.38611e-11
3.2404e-11
2.3936e-11
1.03446e-11
-1.81464e-12
6.26943e-12
1.6195e-11
1.54235e-11
1.29033e-11
1.08913e-11
5.38305e-12
1.11722e-11
2.0098e-11
2.5666e-11
2.71152e-11
2.514e-11
2.01267e-11
1.28923e-11
1.48492e-11
2.37615e-11
3.23387e-11
2.44957e-11
1.14655e-11
-4.41431e-13
4.44624e-12
1.40132e-11
1.1918e-11
8.57499e-12
1.04468e-11
1.02539e-11
1.60839e-11
2.35633e-11
2.69606e-11
2.58143e-11
2.22487e-11
1.70568e-11
1.13748e-11
1.46124e-11
2.37147e-11
3.23044e-11
2.50806e-11
1.27412e-11
7.10579e-13
1.51147e-11
9.01941e-12
6.33373e-12
3.17594e-12
9.48405e-12
1.34725e-11
1.85198e-11
2.40682e-11
2.58588e-11
2.37624e-11
1.99486e-11
1.43257e-11
9.68323e-12
1.43134e-11
2.3944e-11
3.23579e-11
2.54917e-11
1.38304e-11
1.78344e-12
1.74624e-11
1.4224e-12
-9.22154e-13
-3.06728e-12
8.12334e-12
1.48388e-11
1.82094e-11
2.22657e-11
2.3753e-11
2.19143e-11
1.82504e-11
1.21011e-11
9.02312e-12
1.48193e-11
2.46579e-11
3.2471e-11
2.55881e-11
1.46153e-11
2.7558e-12
1.59589e-11
-6.22744e-12
-7.66951e-12
-8.66989e-12
6.51549e-12
1.47167e-11
1.65025e-11
1.9906e-11