/*--------------------------------*- C++ -*----------------------------------*\
| =========                 |                                                 |
| \\      /  F ield         | OpenFOAM: The Open Source CFD Toolbox           |
|  \\    /   O peration     | Version:  4.1                                   |
|   \\  /    A nd           | Web:      www.OpenFOAM.org                      |
|    \\/     M anipulation  |                                                 |
\*---------------------------------------------------------------------------*/
FoamFile
{
    version     2.0;
    format      ascii;
    class       surfaceScalarField;
    location    "11";
    object      phi;
}
// * * * * * * * * * * * * * * * * * * * * * * * * * * * * * * * * * * * * * //

dimensions      [0 3 -1 0 0 0 0];

internalField   nonuniform List<scalar> 
2360
(
1682.05
1586.81
95.243
1586.81
1586.81
2130.18
-543.356
2130.18
2130.18
2130.18
3201.31
-1071.12
3201.31
3201.32
4896.56
-1695.24
4896.57
4896.56
6909.23
-2012.65
6909.24
6909.27
7840.83
-931.514
7840.9
7840.95
8399.88
9367.91
10349.6
11307.5
12265.6
13232
4412.25
9816.77
5427.92
6449.61
7475.35
8503.82
9534.14
10565.6
11598
12630.3
13662.6
14693.9
15750.1
16835.6
17523.3
-483.577
18006.9
-483.538
-483.484
-483.462
-1007.86
524.408
-1007.85
-1007.84
-1007.83
-4969.83
3962
-4969.82
-4969.82
-13104.8
8134.95
-13104.8
-13104.8
-13104.8
-22032.3
8927.5
-22032.3
-22032.3
-22032.3
-29830.4
7798.13
-29058.2
-28137.6
-27307.2
-26621.9
-26035.6
-25471.1
-24861
-24172.6
-23399.4
-22547.9
-21624.7
-20634.3
-19577
-20532.6
2097.77
-19314.1
-17965.9
-16446.4
-14767
-13148.3
-12427.7
-12427.8
-12427.8
-9315.02
-3112.76
-9315.03
-9315.02
-7677.56
-1637.46
-7677.55
-7677.56
-6702.76
-974.8
-6702.76
-6702.75
-6217.2
-485.562
-6217.19
-6217.2
-6217.19
-6241.07
23.8718
-6241.06
-6241.06
-6519.85
278.787
-63396.9
-174429
46726.7
-20533.3
-41387.7
159874
-27159.1
-16445.4
8995.73
-20263.8
1879.99
16170.6
-3540.18
7987.57
-3403.57
1052.47
-3342.85
-3371.85
-4019.92
-4553.8
-2519.1
-6243.08
882.198
-7863.56
2831.89
-4327.63
2154.29
3813.12
458.243
6836.46
-126.424
5898.4
-70.8851
5222.19
-48.0983
4979.03
5590.17
-29312
-119510
-31381.4
-18463.9
-9648.75
138141
-11673.5
-14420.6
2659.7
-34597.1
5734.09
13096.2
444.715
13276.9
-381.251
1878.43
1326.27
-5079.37
1860.79
-5088.32
1993.61
-6375.9
2433.48
-8303.42
3201.75
-5095.91
2919.27
4095.61
1428.11
8327.62
139.517
7186.99
-88.3737
5450.08
-226.529
5117.19
5387.52
10906.9
-132040
-3123.56
-4433.38
16563.7
118454
9355.21
-7212.2
2745.52
-27987.4
4523.69
11318
3329.52
14471.1
2292.75
2915.2
2100.98
-4887.6
1487.93
-4475.26
1378.06
-6266.03
2154.64
-9080
3077.37
-6018.64
2821.54
4351.44
1776.58
9372.59
544.252
8419.32
73.5146
5920.82
-90.2769
5280.98
4811.67
-25231.4
-98920.4
-23953.1
-5711.72
-4360.25
98861.1
-5912.01
-5660.44
-3257.33
-30642
830.444
7230.21
3160.03
12141.5
3399.46
2675.77
2872.5
-4360.64
1490.64
-3093.39
646.434
-5421.83
942.478
-9376.04
2014.07
-7090.24
2167
4198.52
1569.85
9969.74
699.669
9289.5
247.071
6373.41
200.537
5327.51
4037.4
-12261
-84547.5
-15928.2
-2044.58
-2862.95
85795.8
-2170.65
-6352.73
-5641.17
-27171.5
-1288.46
2877.51
2581.9
8271.19
3187.32
2070.35
2022
-3195.31
-535.391
-535.996
-1713.78
-4243.43
-1551.35
-9538.47
-28.4989
-8613.09
994.205
3175.82
945.303
10018.6
559.453
9675.35
398.797
6534.07
629.195
5097.11
3029.11
-21664.9
-60096.4
-22173.4
-1536.15
-335.922
63958.4
1796.63
-8485.28
-4457.33
-20917.6
-1502.84
-76.9801
2160.36
4607.99
2905.14
1325.57
346.653
-636.814
-2516.86
2327.52
-4215.14
-2545.15
-4804.6
-8949
-3488.49
-9929.21
-896.841
584.173
-79.8298
9201.63
70.4309
9525.09
350.602
6253.9
1219.82
4227.89
1136.13
-20885.3
-39371.4
-21095.6
-1325.8
266.205
42596.6
1127.15
-9346.23
-4543.86
-15246.6
-2294.9
-2325.94
1701.24
611.861
2193.42
833.393
-1516.95
3073.56
-4511.61
5322.18
-7254.45
197.699
-8643.71
-7559.74
-7634.72
-10938.2
-3513.35
-3537.2
-1338.25
7026.53
-797.626
8984.46
-12.3356
5468.61
1192.86
3022.68
4426.75
-20069
-20871.3
-19377.9
-2016.93
-296.928
23515.6
-1158.29
-8484.86
-6441.79
-9963.06
-4769.6
-3998.14
-3088
-1069.74
-2943.24
688.641
-4290.8
4421.12
-6566.47
7597.85
-9856.84
3488.07
-11894.9
-5521.63
-11618.4
-11214.7
-7324.57
-7831.05
-2835.58
2537.55
-632.645
6781.53
1170.14
3665.83
-176.951
4369.76
12047.9
-17744.6
-7323.34
-16694.9
-3066.64
349.628
6471.1
-3036.34
-5098.89
-7966.26
-5033.14
-7287.87
-4676.53
-6364.07
-1993.54
-5891.02
215.599
-6552.77
5082.87
-8325.2
9370.27
-11368.7
6531.61
-13492.9
-3397.42
-14121.5
-10586.1
-12303.5
-9649.04
-8019.29
-1746.71
-4887.63
3649.86
-4981.19
3759.39
-7239.7
6628.26
13735.7
-17205.3
3694.57
-16027
-4244.93
903.272
-10459.2
-4999.66
804.035
-8242.73
-1790.06
-8199.76
-4719.5
-8213.62
-1979.67
-8381.32
383.3
-8965.04
5666.58
-10067.4
10472.6
-12117.5
8581.73
-13572.4
-1942.51
-14338.8
-9819.72
-14997
-8990.81
-14555
-2188.72
-13173.6
2268.41
-12309.4
2895.2
-11350.9
5669.78
10519.8
-17349.6
16265.6
-16193.2
-5401.27
81.9522
-26734.3
-5029.62
5915.6
-7624.74
805.057
-8283.93
-4060.3
-9615.02
-648.584
-10742.7
1511.03
-11605.2
6529
-12118.1
10985.6
-12506.7
8970.32
-12267.8
-2181.43
-12726.3
-9361.19
-14193.4
-7523.72
-14014.4
-2367.78
-12636.1
890.171
-11188.2
1447.3
-8801.02
3282.58
5680.76
-17598.6
31365.7
-16618.9
-6380.92
-468.999
-42884.3
-2824.78
8271.39
-6707.94
4688.22
-8094.61
-2673.64
-10764.1
2020.95
-12654.8
3401.73
-13856.4
7730.58
-13486.7
10615.9
-10849.4
6333.04
-8140.37
-4890.5
-9694.32
-7807.23
-14739.2
-2478.88
-17029
-77.9423
-15801.1
-337.763
-13039.9
-1313.92
-8693.63
-1063.65
-2488.45
-18530.6
49519.4
-18007.6
-6903.97
458.394
-61350.2
-389.446
9119.23
-5938.67
10237.4
-7194.06
-1418.24
-10641.8
5468.68
-12918.2
5678.13
-14134.9
8947.28
-12443.2
8924.14
-7572.22
1462.11
-4341.53
-8121.19
-6018.69
-6130.07
-11245.5
2747.96
-15059.9
3736.43
-16564.6
1166.96
-17934.9
56.3769
-19086.9
88.3056
-3568.44
-17849.8
68060.9
-18298.4
-6455.32
133.426
-79782.1
1559.54
7693.11
-4664.73
16461.7
-5676.27
-406.698
-8981.37
8773.78
-11030.4
7727.15
-11634.7
9551.58
-8790.07
6079.53
-4583.3
-2744.66
-3140.51
-9563.99
-3774.26
-5496.32
-5840.59
4814.29
-5896.57
3792.4
-2435.21
-2294.4
577.287
-2956.12
-1839.58
2505.18
4408.76
-17690.5
89120
-19100.2
-5045.62
-4100.59
-94781.7
-1281.83
4874.35
-4500.03
19679.9
-3840.58
-1066.15
-6559.85
11493.1
-7926
9093.3
-7784.43
9410.01
-4750.24
3045.35
-2407.53
-5087.37
-2137.48
-9834.04
-1651.09
-5982.71
-1935.92
5099.12
-1325.97
3182.45
-47.9884
-3572.37
1432.08
-4436.19
1409.43
2527.83
4886.69
-7910.26
99436.5
-15770.7
2814.84
-8068.2
-102484
-7205.49
4011.64
-4250.28
16724.7
-2158.72
-3157.71
-4084.21
13418.5
-4795.13
9804.22
-4058.85
8673.72
-1865.44
851.939
-921.397
-6031.41
-1015.87
-9739.57
-468.056
-6530.52
260.804
4370.26
415.565
3027.69
250.199
-3407.01
-482.528
-3703.46
747.513
1297.79
3621.55
-24833.6
132411
-25536.2
3517.42
-7147.31
-120873
-7113.57
3977.91
-2891.67
12502.8
-616.307
-5433.06
-1582.71
14385
-2151.93
10373.4
-858.106
7379.9
163.152
-169.318
952.235
-6820.49
594.648
-9381.98
-16.8378
-5919.04
748.236
3605.19
964.902
2811.02
452.233
-2894.34
-477.614
-2773.62
654.388
165.795
2580.7
9733.92
121137
-5496.79
18748.1
16911.9
-143282
10128.1
10761.7
-768.276
23399.2
-82.306
-6119.03
965.528
13337.1
93.5763
11245.4
1379.6
6093.88
2282.75
-1072.47
3233.69
-7771.44
2103.87
-8252.15
312.993
-4128.16
591.901
3326.28
910.323
2492.6
447.056
-2431.07
-232.509
-2094.05
418.887
-485.597
1928.47
-30022.8
177099
-32977.9
21703.2
-12722.3
-163537
-15809.3
13848.7
-4037.38
11627.2
195.422
-10351.8
1834.47
11698.1
733.56
12346.3
2678.06
4149.38
5075.99
-3470.39
4457.14
-7152.59
2080.5
-5875.52
-63.2874
-1984.37
176.002
3086.99
628.882
2039.72
252.886
-2055.08
-288.9
-1552.26
-31.3134
-743.182
1353.8
-68115.2
48523
-40692.1
-25629.2
3715.7
-5323.8
-2340.29
4996.61
7112.11
5819.86
2560.17
-149.244
-1457.86
-777.505
193.821
-29.7361
-320.369
-559.722
10.077
-568.939
105.819
-1063.68
173.718
-1049.61
228.195
-1012.21
278.85
-1008.79
321.892
-1009.41
328.649
-1003.81
315.083
-1002.32
297.015
-1003.81
276.091
-1004.97
253.79
-1006.27
230.849
-1007.5
207.789
-1008.45
184.988
-1009.63
162.616
-1009.96
140.843
-1010.56
120.296
-1010.82
107.123
-1043.03
90.2039
-1068.57
-597.468
29.6839
-598.621
21.9301
-1055.92
2.14098
-1029.82
-10.4006
-999.663
-18.8382
-1000.35
-26.9503
-1001.29
-26.3823
-1004.38
-23.8835
-1004.82
-22.0978
-1005.6
-20.9655
-1006.11
-20.4099
-1006.83
-20.3805
-1007.53
-20.7086
-1008.13
-21.2829
-1009.05
-21.8344
-1009.42
-22.2453
-1010.15
-22.1003
-1010.97
-23.9638
-1041.17
-23.1765
-1069.37
-620.645
26.9858
-625.605
32.6118
-1061.54
32.0111
-1029.22
33.2938
-1000.94
33.8815
-1000.94
33.7586
-1001.17
30.8014
-1001.42
27.4579
-1001.48
23.9308
-1002.07
20.1908
-1002.37
16.2421
-1002.88
12.0753
-1003.36
7.73517
-1003.79
3.18146
-1004.5
-1.47603
-1004.76
-6.23556
-1005.39
-11.523
-1005.69
-19.7883
-1032.91
-20.8573
-1068.3
-641.502
21.3097
-646.917
21.0282
-1061.26
14.7607
-1022.96
11.8488
-998.033
9.69825
-998.793
7.61178
-999.083
6.07932
-999.891
4.5558
-999.953
2.96541
-1000.48
1.30051
-1000.7
-0.446624
-1001.13
-2.31087
-1001.5
-4.2723
-1001.83
-6.39441
-1002.38
-8.60732
-1002.55
-10.9782
-1003.02
-13.6255
-1003.04
-19.3955
-1027.14
-20.6121
-1067.08
-662.114
20.9872
-667.905
20.5232
-1060.8
16.1214
-1018.55
14.1225
-996.035
12.2045
-996.875
10.2024
-997.082
8.00754
-997.697
5.81007
-997.756
3.57915
-998.251
1.3337
-998.457
-0.932683
-998.868
-3.23071
-999.2
-5.53147
-999.531
-7.88417
-1000.03
-10.2174
-1000.22
-12.5561
-1000.68
-15.1012
-1000.5
-20.5017
-1021.74
-21.8084
-1065.78
-683.923
20.7117
-688.618
19.4171
-1059.51
14.6547
-1013.79
12.5132
-993.895
10.5488
-994.912
8.55101
-995.086
6.54815
-995.695
4.55092
-995.761
2.52852
-996.23
0.493973
-996.424
-1.55699
-996.818
-3.63954
-997.119
-5.72737
-997.444
-7.86944
-997.887
-9.99668
-998.091
-12.1444
-998.532
-14.412
-998.229
-19.4413
-1016.71
-21.4082
-1063.81
-705.331
20.7716
-709.391
18.8503
-1057.59
14.3703
-1009.32
12.3628
-991.888
10.4423
-992.993
8.48618
-993.131
6.48796
-993.698
4.50101
-993.775
2.49328
-994.223
0.483828
-994.416
-1.53354
-994.802
-3.56785
-995.086
-5.59369
-995.419
-7.65675
-995.825
-9.68969
-996.059
-11.733
-996.49
-13.8243
-996.138
-18.4342
-1012.1
-20.9787
-1061.27
-726.31
20.7356
-730.128
18.1832
-1055.03
13.8757
-1005.01
11.9717
-989.986
10.1137
-991.136
8.22868
-991.247
6.31152
-991.782
4.4057
-991.87
2.47864
-992.297
0.550732
-992.489
-1.38623
-992.866
-3.33894
-993.134
-5.28439
-993.475
-7.26559
-993.845
-9.21672
-994.109
-11.1852
-994.522
-13.1514
-994.173
-17.4586
-1007.79
-20.6033
-1058.12
-746.913
20.6673
-750.796
17.4786
-1051.85
13.4117
-1000.94
11.6124
-988.187
9.81592
-989.34
7.99796
-989.43
6.14692
-989.932
4.30792
-990.032
2.44741
-990.438
0.588066
-990.63
-1.281
-990.998
-3.16281
-991.253
-5.03768
-991.601
-6.9455
-991.937
-8.82296
-992.232
-10.7237
-992.622
-12.5829
-992.314
-16.6057
-1003.77
-20.3411
-1054.39
-767.254
20.5507
-771.347
16.7321
-1048.03
12.9144
-997.126
11.214
-986.487
9.48083
-987.608
7.73283
-987.683
5.9526
-988.153
4.18455
-988.265
2.39404
-988.648
0.605941
-988.843
-1.19386
-989.198
-3.00436
-989.443
-4.8103
-989.795
-6.64727
-990.101
-8.45543
-990.424
-10.293
-990.785
-12.0593
-990.548
-15.8191
-1000.01
-20.1462
-1050.06
-787.4
20.42
-791.768
15.9736
-1043.58
12.4182
-993.571
10.8077
-984.877
9.13661
-985.937
7.45644
-986.003
5.74467
-986.441
4.04514
-986.566
2.32243
-986.926
0.603516
-987.125
-1.12909
-987.466
-2.86983
-987.703
-4.60874
-988.057
-6.37599
-988.334
-8.11653
-988.684
-9.89156
-989.01
-11.5727
-988.867
-15.0725
-996.51
-19.9913
-1045.14
-807.392
20.282
-812.051
15.2119
-1038.51
11.9244
-990.284
10.3969
-983.35
8.78811
-984.329
7.17542
-984.391
5.53185
-984.798
3.90043
-984.935
2.24518
-985.271
0.595018
-985.475
-1.07101
-985.801
-2.74233
-986.032
-4.41531
-986.384
-6.11315
-986.637
-7.78729
-987.01
-9.49968
-987.298
-11.1023
-987.265
-14.3432
-993.27
-19.854
-1039.63
-827.246
20.1467
-832.198
14.4547
-1032.82
11.4392
-987.269
9.98807
-981.9
8.44227
-982.784
6.89671
-982.846
5.32093
-983.223
3.75702
-983.371
2.1688
-983.683
0.586623
-983.893
-1.01344
-984.201
-2.61576
-984.43
-4.22393
-984.777
-5.85226
-985.009
-7.46122
-985.402
-9.11025
-985.65
-10.6402
-985.735
-13.6218
-990.288
-19.7238
-1033.53
-846.969
20.019
-852.217
13.7041
-1026.51
10.9634
-984.528
9.58391
-980.521
8.10292
-981.303
6.62549
-981.368
5.11803
-981.716
3.62212
-981.876
2.10158
-982.163
0.587244
-982.379
-0.946556
-982.668
-2.47984
-982.897
-4.02411
-983.233
-5.58237
-983.451
-7.12786
-983.857
-8.71273
-984.065
-10.1761
-984.272
-12.8996
-987.565
-19.5909
-1026.84
-866.56
19.9099
-872.127
12.9647
-1019.56
10.5007
-982.065
9.18903
-979.209
7.77453
-979.889
6.36656
-979.961
4.9273
-980.277
3.4993
-980.448
2.04684
-980.711
0.599386
-980.932
-0.867807
-981.201
-2.33237
-981.433
-3.81344
-981.752
-5.30017
-981.964
-6.78401
-982.373
-8.30243
-982.547
-9.70415
-982.871
-12.1721
-985.097
-19.4463
-1019.57
-886.007
19.8436
-891.971
12.2548
-1011.97
10.0741
-979.884
8.83291
-977.968
7.48927
-978.546
6.15509
-978.627
4.78455
-978.907
3.42297
-979.087
2.03669
-979.325
0.650969
-979.546
-0.754075
-979.796
-2.15677
-980.031
-3.58115
-980.328
-5.00089
-980.545
-6.43163
-980.942
-7.88328
-981.095
-9.23062
-981.523
-11.4479
-982.88
-19.2851
-1011.73
-905.292
19.8667
-911.838
11.6131
-1003.72
9.74405
-978.015
8.60067
-976.825
7.34908
-977.294
6.11084
-977.389
4.82688
-977.623
3.54379
-977.804
2.2335
-978.015
0.913262
-978.226
-0.429205
-978.454
-1.77746
-978.682
-3.15527
-978.95
-4.52524
-979.175
-5.92973
-979.538
-7.3334
-979.692
-8.66756
-980.189
-10.6722
-980.876
-19.0372
-1003.36
-924.329
20.0761
-931.914
11.1013
-994.745
9.5891
-976.503
8.60402
-975.84
7.48234
-976.172
6.3706
-976.277
5.2019
-976.454
4.01666
-976.619
2.79887
-976.797
1.55756
-976.985
0.289028
-977.185
-0.997338
-977.396
-2.31851
-977.629
-3.63958
-977.854
-5.02052
-978.157
-6.37952
-978.333
-7.75904
-978.81
-9.59867
-979.036
-18.4201
-994.542
-942.749
20.7985
-952.713
11.0691
-985.016
9.96421
-975.398
9.25108
-975.127
8.35668
-975.278
7.43137
-975.352
6.4231
-975.446
5.35166
-975.547
4.21252
-975.658
3.00837
-975.781
1.7411
-975.918
0.416536
-976.072
-0.967695
-976.245
-2.38524
-976.436
-3.87443
-976.668
-5.32812
-976.879
-6.87859
-977.26
-8.53109
-977.384
-17.5627
-985.51
-960.312
22.2871
12.2709
11.8725
11.7455
11.4673
11.1154
10.6694
10.1222
9.46438
8.68334
7.7653
6.69365
5.44875
4.01235
2.34423
0.465098
-1.79444
-4.17812
-14.6883
-670.145
1645.17
-1082.35
1387.23
-1503.44
1396.1
-1837.68
1309.26
-2131.35
1268.68
-2372.74
1216.41
-2570.21
1172.48
-2723.61
1128.42
-2835.38
1086.77
-2906.57
1046.21
-2938.15
1006.59
-2929.51
966.368
-2877.66
923.152
-2776.79
874.143
-2618.72
816.931
-2393
749.279
-2081.28
663.283
-1635.62
529.336
-967.14
306.525
7.86044
-181.654
1826.85
-413.493
1619.1
-658.85
1641.48
-863.244
1513.68
-1058.93
1464.38
-1223.05
1380.55
-1365.44
1314.89
-1481.81
1244.81
-1574.56
1179.53
-1641.55
1113.22
-1678.6
1043.65
-1677.71
965.495
-1631.01
876.455
-1534.6
777.741
-1389.03
671.369
-1192.52
552.777
-930.691
401.456
-574.299
172.946
-168.362
-99.4021
-160.501
-155.512
1982.38
-345.057
1808.67
-495.539
1791.98
-615.38
1633.54
-725.528
1574.55
-811.79
1466.83
-888.224
1391.34
-950.971
1307.57
-1003.69
1232.27
-1040.93
1150.46
-1050.78
1053.51
-1011.38
926.111
-903.797
768.877
-733.989
607.946
-531.634
469.026
-306.954
328.113
-56.6001
151.133
141.554
-25.1733
215.408
-173.223
54.9066
-69.4504
2051.84
-161.667
1900.89
-237.623
1867.94
-307.701
1703.63
-380.302
1647.15
-443.223
1529.76
-509.736
1457.86
-572.414
1370.25
-637.09
1296.95
-699.43
1212.81
-755.288
1109.38
-789.754
960.583
-782.556
761.688
-724.349
549.746
-632.628
377.319
-526.998
222.497
-431.825
55.978
-336.331
-120.651
-248.469
-261.062
-193.562
7.52213
2044.32
-63.7335
1972.16
-98.2153
1902.43
-127.702
1733.12
-156.895
1676.36
-177.675
1550.55
-197.214
1477.41
-209.086
1382.14
-217.015
1304.89
-221.317
1217.12
-229.543
1117.62
-252.27
983.327
-295.425
804.867
-343.678
598.022
-370.338
404.011
-374.074
226.27
-377.135
59.0784
-372.471
-125.287
-302.669
-330.838
-496.23
124.81
1919.52
78.2139
2018.76
96.475
1884.18
126.475
1703.13
166.211
1636.63
210.068
1506.7
263.877
1423.61
325.715
1320.31
398.286
1232.33
476.793
1138.63
552.883
1041.54
605.79
930.429
610.499
800.165
557.65
650.881
468.654
493.016
364.665
330.271
261.011
162.748
171.033
-35.2935
48.4827
-208.275
-447.748
179.022
1740.51
170.517
2027.28
207.467
1847.24
260.636
1649.98
327.676
1569.6
391.648
1442.75
464.131
1351.14
539.377
1245.08
622.46
1149.26
709.299
1051.8
795.794
955.051
870.118
856.118
916.4
753.889
919.868
647.423
875.735
537.156
784.518
421.497
645.607
301.665
444.677
165.645
224.166
12.2469
-223.582
152.219
1588.3
178.879
2000.63
217.615
1808.51
270.122
1597.49
334.723
1505
394.953
1382.53
459.157
1286.94
522.55
1181.7
587.094
1084.72
648.996
989.911
705.561
898.487
752.143
809.544
783.574
722.458
794.023
636.981
777.565
553.614
725.403
473.663
626.463
400.604
464.785
327.322
242.225
234.808
18.6433
80.0071
1508.33
127.352
1953.32
176.671
1759.22
231.776
1542.42
293.088
1443.72
356.536
1319.12
422.21
1221.29
490.433
1113.51
560.094
1015.08
632.196
917.838
706.093
824.613
780.636
735.025
852.223
650.89
912.404
576.819
944.176
521.86
919.713
498.14
812.929
507.401
606.971
533.293
320.601
521.202
339.244
-13.0766
1521.4
46.3891
1893.85
102.19
1703.42
133.96
1510.64
160.109
1417.57
178.605
1300.62
195.594
1204.3
221.835
1087.27
268.477
968.434
345.635
840.677
456.268
713.976
598.847
592.442
761.695
488.039
919.179
419.331
1028.94
412.1
1039.66
487.416
914.332
632.727
656.292
791.332
323.567
853.926
662.811
-165.322
1686.72
-199.6
1928.12
-236.654
1740.47
-329.409
1603.39
-442.636
1530.8
-577.753
1435.73
-716.417
1342.97
-843.071
1213.92
-941.042
1066.41
-1004.17
903.809
-1031.47
741.28
-1021.14
582.118
-970.569
437.468
-876.699
325.466
-736.25
271.654
-544.691
295.86
-315.8
403.837
-104.06
579.594
4.41131
745.457
667.222
-68.91
1755.58
-230.138
2089.3
-380.71
1891
-529.496
1752.13
-689.585
1690.85
-865.686
1611.79
-1050.41
1527.66
-1237.62
1401.09
-1422.99
1251.76
-1605.11
1085.89
-1783.86
920.009
-1953.16
751.396
-2096.64
580.939
-2182.94
411.749
-2164.25
252.954
-1990.38
121.977
-1638.1
51.556
-1106.63
48.1197
-466.637
105.453
200.585
307.006
1448.55
264.184
2132.1
93.0905
2062.07
-36.872
1882.06
-121.55
1775.51
-191.243
1681.44
-258.48
1594.88
-336.512
1479.09
-428.828
1344.06
-534.162
1191.19
-647.821
1033.66
-767.336
870.881
-889.782
703.378
-1008.19
530.14
-1108.05
352.803
-1166.62
180.538
-1149.22
34.1564
-979.448
-121.652
-589.858
-284.137
-389.273
571.142
877.392
790.721
1912.5
725.02
2127.76
645.726
1961.34
638.407
1782.81
672.7
1647.13
724.908
1542.65
768.851
1435.12
793.831
1319.07
793.56
1191.44
769.985
1057.22
722.462
918.382
649.063
776.763
546.915
632.268
414.736
484.963
263.382
331.865
125.629
171.868
28.9165
-24.9856
-53.137
-202.117
-442.411
416.975
460.401
585.82
1743.65
594.975
2118.6
591.391
1964.91
625.783
1748.41
688.83
1584.07
766.041
1465.43
841.435
1359.71
906.039
1254.45
953.215
1144.25
980.71
1029.71
986.684
912.397
969.204
794.233
925.408
676.052
851.661
558.698
744.298
439.218
600.144
316.008
401.952
173.188
200.558
-0.746116
-241.853
32.8342
427.553
15.8264
1760.65
57.1436
2077.27
127.099
1894.95
202.456
1673.05
279.815
1506.7
357.461
1387.77
431.665
1285.5
498.307
1187.8
553.53
1089.02
594.193
989.039
617.736
888.848
622.018
789.939
605.402
692.66
566.974
597.111
506.382
499.798
421.707
400.669
305.611
289.26
147.848
156.983
-94.0054
-171.776
599.328
-233.7
1822.58
-167.429
2011
-78.8485
1806.37
0.462283
1593.74
72.9318
1434.24
142.708
1317.99
208.866
1219.35
268.851
1127.81
319.901
1037.97
359.537
949.397
386.32
862.063
400.128
776.122
402.332
690.452
395.288
604.145
378.032
517.046
341.103
437.589
265.707
364.646
132.282
290.384
38.276
-130.059
729.383
-154.794
1847.31
-61.852
1918.06
38.8366
1705.68
126.49
1506.08
204.208
1356.52
275.492
1246.7
341.618
1153.22
400.657
1068.76
451.105
987.521
492.847
907.646
527.044
827.861
556.92
746.238
586.117
661.249
612.671
577.582
619.862
509.849
579.69
477.756
463.088
481.241
262.724
490.738
301
-10.4342
739.816
-14.7868
1851.66
23.9321
1879.34
65.8807
1663.73
110.792
1461.16
155.837
1311.47
208.06
1194.48
259.685
1101.59
312.519
1015.93
369.553
930.487
433.861
843.334
508.269
753.453
594.514
659.989
686.471
569.292
763.242
500.808
785.132
487.957
713.231
549.657
529.316
665.157
275.515
744.54
576.515
19.2125
252.243
452.098
596.343
709.262
802.198
854.464
898.789
924.316
931.684
923.525
903.799
875.464
834.634
770.975
672.645
537.003
371.801
195.751
)
;

boundaryField
{
    outletWall
    {
        type            calculated;
        value           nonuniform List<scalar> 
60
(
-6519.85
-5359.49
-5001.82
-5277.73
-5313.74
-5140.41
-3135.53
2377.95
4462.26
4742.26
5230.87
3311.13
-1189.07
-2567.4
-9054.81
-15891
2216.84
-71759.3
-89590.4
205022
33822.7
-25939.2
1539.35
-8140.41
-2406.22
-3368.65
-691.631
376.807
2498.53
4778.53
6187.38
4196.69
1568.9
160.214
-2786.19
-2111.8
-7887.89
1622.74
-25606.9
32803.6
-1682.05
889.32
-503.829
-1261.63
-1831.52
1068.39
2406.64
-675.759
-3166.1
-3892.9
-2178.15
2033.88
5009.4
8714.56
-1312.33
-17717.7
-1214.23
-74322.3
-94934.9
211392
)
;
    }
    fineWalls
    {
        type            calculated;
        value           uniform 0;
    }
    fineFrontAndBack
    {
        type            calculated;
        value           nonuniform List<scalar> 
960
(
-1.44628e-16
1.14386e-15
2.15495e-15
2.64604e-15
1.65881e-13
9.8175e-15
1.63822e-14
-2.95298e-14
5.78841e-13
5.42818e-14
7.92216e-14
-9.835e-13
-2.68937e-13
-2.02457e-13
-3.63718e-12
-8.02057e-13
-6.62731e-13
-4.24646e-12
-5.50357e-13
-9.46983e-13
1.7932e-16
-4.12081e-13
-5.0021e-13
-5.68005e-13
-5.77239e-13
-7.43269e-13
-1.31523e-11
-8.98806e-13
-8.90404e-13
-9.17134e-13
-9.59939e-13
-9.52999e-13
-9.4019e-13
-9.65516e-13
-9.69182e-13
-9.73642e-13
-9.58405e-13
-1.0122e-12
-9.7243e-13
-1.10715e-12
-1.88464e-11
-1.56541e-12
1.04335e-12
8.37774e-12
5.72049e-11
2.91008e-12
6.62454e-13
1.31133e-13
-7.72742e-12
-2.6304e-12
-6.65023e-14
7.5192e-12
1.42513e-12
1.3983e-12
1.08838e-12
4.2797e-13
-1.22336e-12
-2.49154e-12
-3.46517e-12
-1.81908e-11
-1.40301e-13
-3.46396e-13
-5.27059e-13
-9.41146e-13
-1.38463e-12
-1.6064e-12
-1.5223e-12
-1.2204e-12
-8.12123e-13
-4.35295e-13
-1.98024e-13
-7.92336e-14
-1.83827e-14
-4.38048e-12
1.99701e-13
1.46681e-13
1.12108e-13
4.35175e-14
-6.26431e-14
-3.91142e-13
-1.51301e-12
-1.96243e-12
-1.1648e-11
-2.78701e-12
-2.89385e-12
-1.40588e-11
-2.24973e-12
-2.48722e-12
-1.13736e-11
-1.35703e-12
-1.30832e-12
-3.4029e-12
3.88319e-13
4.65761e-13
4.15122e-13
2.08525e-12
3.26345e-13
3.13477e-13
8.06157e-13
-2.7868e-14
-9.75901e-09
4.41418e-10
5.46241e-10
-1.2545e-10
5.82564e-12
1.71658e-11
1.18379e-12
1.69001e-13
5.21632e-13
-4.47294e-13
2.51054e-12
6.51389e-12
9.18415e-12
3.45481e-12
3.24781e-13
-3.83056e-14
2.81638e-15
2.15936e-15
6.40695e-14
3.15423e-09
4.05597e-10
7.80164e-10
2.61744e-10
-3.30682e-11
2.09473e-11
2.34318e-11
9.38188e-12
-4.87137e-13
-1.29524e-12
1.17462e-12
6.75105e-12
8.11377e-12
7.06336e-12
1.81773e-12
-3.95382e-14
-1.5817e-14
-2.87359e-14
1.0285e-13
2.32808e-10
7.33784e-10
8.6134e-10
4.08395e-10
4.23706e-12
2.1956e-11
3.40933e-11
1.95283e-11
9.42761e-13
-3.14622e-12
1.30505e-12
9.21613e-12
7.97698e-12
7.75624e-12
2.8038e-12
1.40084e-13
-5.869e-14
-1.84382e-14
9.61267e-14
9.14263e-10
1.05245e-09
8.04485e-10
-2.07979e-10
-2.30112e-11
2.78565e-11
2.77483e-11
1.41661e-11
3.79675e-13
-2.54e-12
3.09693e-12
1.01979e-11
6.91423e-12
6.84277e-12
3.1181e-12
3.65593e-13
-8.2992e-14
-3.84906e-14
9.12317e-13
7.63822e-10
9.4488e-10
7.29235e-10
-8.17718e-11
-2.11964e-11
1.66359e-11
1.13349e-11
3.45288e-12
-1.26762e-12
-1.07102e-12
7.55863e-12
9.83867e-12
6.96557e-12
6.88701e-12
3.37483e-12
6.27885e-13
-6.36866e-14
-1.91703e-14
2.72577e-12
7.82913e-10
7.80796e-10
6.31349e-10
-3.50843e-11
-1.58442e-11
4.7771e-12
-1.91215e-12
-6.00078e-12
-1.55403e-12
1.96397e-12
9.17319e-12
8.93712e-12
7.65564e-12
6.00667e-12
3.62367e-12
9.42686e-13
-2.29986e-14
-9.03196e-13
7.61931e-12
7.6768e-10
6.0169e-10
5.15906e-10
-2.6205e-11
-6.42688e-12
2.05892e-12
-7.74606e-12
-6.63837e-12
1.46558e-12
6.00272e-12
9.18784e-12
7.61275e-12
6.85758e-12
5.57478e-12
3.01824e-12
1.49321e-12
3.97515e-13
4.27777e-13
-3.76818e-12
7.44469e-10
4.2202e-10
3.94225e-10
-1.66198e-11
-5.46088e-12
1.65296e-12
-3.1672e-12
1.55927e-12
6.37607e-12
9.25885e-12
8.02893e-12
3.25955e-12
2.56657e-12
5.26822e-12
2.88784e-12
6.73686e-13
-1.27632e-14
-2.40276e-12
-2.75217e-11
7.16272e-10
2.51112e-10
2.93054e-10
-1.0102e-11
-1.21096e-11
-1.08447e-11
-5.29602e-12
3.44575e-12
7.89387e-12
8.672e-12
3.57791e-12
-7.17079e-12
-8.08075e-12
4.10772e-12
9.82584e-12
2.93268e-12
8.03414e-13
-4.17588e-12
-9.87516e-12
5.861e-10
-2.54023e-11
9.02597e-11
-5.46967e-12
-1.59098e-11
-2.78096e-11
-2.53817e-11
9.53929e-12
1.24871e-11
1.0794e-11
-3.02205e-12
-2.36291e-11
-2.19623e-11
-1.10279e-12
1.65901e-11
8.27293e-12
7.40761e-12
7.48826e-12
8.86283e-12
3.79899e-10
-2.21269e-10
-2.19414e-11
-1.19032e-12
5.14019e-12
7.6852e-12
1.3515e-11
-4.53278e-12
1.25271e-11
9.45834e-12
-9.34525e-12
-3.00634e-11
-2.50616e-11
-1.28577e-11
9.70016e-12
2.32035e-11
1.82945e-11
1.09425e-11
1.75729e-12
3.04282e-10
-2.01753e-10
-3.06296e-11
-7.60468e-12
-1.04807e-11
-2.02104e-11
-1.65315e-11
-1.09865e-11
-2.16705e-12
-2.55719e-12
-1.30185e-11
-1.63816e-11
-1.19694e-11
-1.882e-11
-1.25135e-11
4.69342e-12
1.55896e-11
2.60535e-11
4.40608e-11
2.49069e-10
-1.59452e-10
-4.76342e-11
-1.55338e-11
-1.64401e-11
-1.96635e-11
-2.31685e-11
-2.15564e-11
-1.70784e-11
-1.47675e-11
-1.35535e-11
-8.50153e-12
-8.54784e-12
-2.14909e-11
-3.23169e-11
-3.59639e-11
-3.83444e-11
-3.88338e-11
-3.62088e-11
1.87744e-10
-1.1625e-10
-5.08271e-11
-2.65042e-11
-2.0982e-11
-1.36604e-11
-2.48952e-11
-2.68724e-11
-2.42737e-11
-1.99762e-11
-1.40723e-11
-1.1343e-11
-8.79098e-12
-1.83932e-11
-2.47213e-11
-1.43903e-11
-9.65737e-13
-2.99239e-12
-1.77393e-11
1.08335e-10
-8.45354e-11
-4.85863e-11
-3.05144e-11
-2.51191e-11
-5.89258e-12
-2.36098e-11
-2.77906e-11
-2.61082e-11
-2.1159e-11
-1.56674e-11
-1.43743e-11
-6.27749e-12
-1.13845e-11
-1.80362e-11
-6.9162e-12
-9.72624e-13
5.61481e-12
-7.25925e-12
4.11731e-11
-6.17242e-11
-4.52747e-11
-3.25449e-11
-2.67952e-11
-4.86408e-12
-2.02176e-11
-2.61023e-11
-2.57821e-11
-2.11438e-11
-1.75504e-11
-2.03243e-11
-8.00602e-12
-3.97256e-12
-1.16446e-11
-4.68672e-12
-8.10663e-13
2.19486e-12
8.44399e-14
-2.37835e-11
-4.49717e-11
-3.99794e-11
-3.17749e-11
-2.55834e-11
-8.78732e-12
-1.65886e-11
-2.32504e-11
-2.41664e-11
-2.17154e-11
-2.16345e-11
-2.98882e-11
-1.38851e-11
-1.8418e-13
-5.21506e-12
-1.21784e-12
2.83375e-14
-1.52826e-13
3.25195e-12
-4.37108e-11
-7.64462e-11
-3.28894e-11
-2.69529e-11
-2.62005e-11
-1.21726e-11
-1.58291e-11
-2.18784e-11
-2.26644e-11
-2.01285e-11
-2.95921e-11
-3.77538e-11
-1.93252e-11
2.88288e-13
-1.44967e-12
-3.66299e-14
3.79281e-14
1.65872e-14
3.01088e-12
-1.35183e-10
-4.29712e-11
-2.35799e-11
-3.01606e-11
-2.28097e-11
-1.43973e-11
-1.27847e-11
-1.98481e-11
-1.64329e-11
-2.60635e-11
-3.74427e-11
-3.53617e-11
-1.5559e-11
1.34302e-13
-1.70198e-13
4.36978e-14
3.04141e-15
1.50234e-13
1.68089e-12
1.04851e-10
-1.55004e-11
-1.23137e-11
-1.21255e-11
-5.88906e-12
-1.26629e-11
-5.08694e-11
-3.56121e-11
-3.8698e-11
-3.69027e-11
-2.46595e-11
-1.00361e-11
-1.09334e-12
2.74173e-13
7.01242e-14
-1.11475e-14
-2.88789e-15
6.51528e-14
4.40044e-13
1.44628e-16
-1.14386e-15
-2.15495e-15
-2.64604e-15
-1.65881e-13
-9.8175e-15
-1.63822e-14
2.95298e-14
-5.78841e-13
-5.42818e-14
-7.92216e-14
9.835e-13
2.68937e-13
2.02457e-13
3.63718e-12
8.02057e-13
6.62731e-13
4.24646e-12
5.50357e-13
9.46983e-13
-1.7932e-16
4.12081e-13
5.0021e-13
5.68005e-13
5.77239e-13
7.43269e-13
1.31523e-11
8.98806e-13
8.90404e-13
9.17134e-13
9.59939e-13
9.52999e-13
9.4019e-13
9.65516e-13
9.69182e-13
9.73642e-13
9.58405e-13
1.0122e-12
9.7243e-13
1.10715e-12
1.88464e-11
1.56541e-12
-1.04335e-12
-8.37774e-12
-5.72049e-11
-2.91008e-12
-6.62454e-13
-1.31133e-13
7.72742e-12
2.6304e-12
6.65023e-14
-7.5192e-12
-1.42513e-12
-1.3983e-12
-1.08838e-12
-4.2797e-13
1.22336e-12
2.49154e-12
3.46517e-12
1.81908e-11
1.40301e-13
3.46396e-13
5.27059e-13
9.41146e-13
1.38463e-12
1.6064e-12
1.5223e-12
1.2204e-12
8.12123e-13
4.35295e-13
1.98024e-13
7.92336e-14
1.83827e-14
4.38048e-12
-1.99701e-13
-1.46681e-13
-1.12108e-13
-4.35175e-14
6.26431e-14
3.91142e-13
1.51301e-12
1.96243e-12
1.1648e-11
2.78701e-12
2.89385e-12
1.40588e-11
2.24973e-12
2.48722e-12
1.13736e-11
1.35703e-12
1.30832e-12
3.4029e-12
-3.88319e-13
-4.65761e-13
-4.15122e-13
-2.08525e-12
-3.26345e-13
-3.13477e-13
-8.06157e-13
2.7868e-14
9.75901e-09
-4.41418e-10
-5.46241e-10
1.2545e-10
-5.82564e-12
-1.71658e-11
-1.18379e-12
-1.69001e-13
-5.21632e-13
4.47294e-13
-2.51054e-12
-6.51389e-12
-9.18415e-12
-3.45481e-12
-3.24781e-13
3.83056e-14
-2.81638e-15
-2.15936e-15
-6.40695e-14
-3.15423e-09
-4.05597e-10
-7.80164e-10
-2.61744e-10
3.30682e-11
-2.09473e-11
-2.34318e-11
-9.38188e-12
4.87137e-13
1.29524e-12
-1.17462e-12
-6.75105e-12
-8.11377e-12
-7.06336e-12
-1.81773e-12
3.95382e-14
1.5817e-14
2.87359e-14
-1.0285e-13
-2.32808e-10
-7.33784e-10
-8.6134e-10
-4.08395e-10
-4.23706e-12
-2.1956e-11
-3.40933e-11
-1.95283e-11
-9.42761e-13
3.14622e-12
-1.30505e-12
-9.21613e-12
-7.97698e-12
-7.75624e-12
-2.8038e-12
-1.40084e-13
5.869e-14
1.84382e-14
-9.61267e-14
-9.14263e-10
-1.05245e-09
-8.04485e-10
2.07979e-10
2.30112e-11
-2.78565e-11
-2.77483e-11
-1.41661e-11
-3.79675e-13
2.54e-12
-3.09693e-12
-1.01979e-11
-6.91423e-12
-6.84277e-12
-3.1181e-12
-3.65593e-13
8.2992e-14
3.84906e-14
-9.12317e-13
-7.63822e-10
-9.4488e-10
-7.29235e-10
8.17718e-11
2.11964e-11
-1.66359e-11
-1.13349e-11
-3.45288e-12
1.26762e-12
1.07102e-12
-7.55863e-12
-9.83867e-12
-6.96557e-12
-6.88701e-12
-3.37483e-12
-6.27885e-13
6.36866e-14
1.91703e-14
-2.72577e-12
-7.82913e-10
-7.80796e-10
-6.31349e-10
3.50843e-11
1.58442e-11
-4.7771e-12