/*--------------------------------*- C++ -*----------------------------------*\
| =========                 |                                                 |
| \\      /  F ield         | OpenFOAM: The Open Source CFD Toolbox           |
|  \\    /   O peration     | Version:  4.1                                   |
|   \\  /    A nd           | Web:      www.OpenFOAM.org                      |
|    \\/     M anipulation  |                                                 |
\*---------------------------------------------------------------------------*/
FoamFile
{
    version     2.0;
    format      ascii;
    class       volVectorField;
    location    "11";
    object      U;
}
// * * * * * * * * * * * * * * * * * * * * * * * * * * * * * * * * * * * * * //

dimensions      [0 1 -1 0 0 0 0];

internalField   nonuniform List<vector> 
1280
(
(-1.04519e-19 1.00203 -0.0156222)
(1.9441e-19 0.474515 -0.236134)
(1.42344e-18 0.41478 -0.282273)
(1.91223e-18 0.589981 -0.273674)
(2.81931e-17 0.64296 -0.459518)
(7.09485e-18 0.628612 -0.352274)
(1.1839e-17 0.738195 -0.343363)
(-3.20519e-17 0.747122 -0.299117)
(1.2776e-16 0.974941 -0.678161)
(5.7582e-17 1.02667 -0.453187)
(9.39594e-17 1.12046 -0.310951)
(-3.21232e-16 1.43077 -1.08525)
(-1.94353e-16 1.5525 -0.793185)
(-1.84828e-16 1.69115 -0.525144)
(-1.10139e-15 2.09496 -1.58897)
(-5.79626e-16 2.10369 -1.33031)
(-4.78939e-16 2.41656 -1.03057)
(-7.21727e-16 2.39489 -1.74244)
(-3.97729e-16 2.55612 -1.02676)
(-6.8436e-16 2.10672 -2.62434)
(7.35673e-19 2.52283 0.515013)
(-1.69059e-15 2.7199 3.82679)
(-2.05214e-15 2.4804 5.56946)
(-2.33028e-15 2.72053 6.71279)
(-2.36816e-15 2.60758 7.56815)
(-3.04931e-15 2.95711 8.58116)
(-2.77256e-15 0.513673 9.66056)
(-3.68741e-15 4.03135 14.3978)
(-3.65294e-15 4.27117 14.8721)
(-3.7626e-15 4.30763 15.2156)
(-3.93821e-15 4.34543 15.4446)
(-3.90974e-15 4.37471 15.603)
(-3.85719e-15 4.39639 15.7159)
(-3.96109e-15 4.39313 15.8036)
(-3.97613e-15 4.42214 15.8708)
(-3.99443e-15 4.38087 15.9229)
(-3.93192e-15 4.46125 15.9804)
(-4.15263e-15 4.28785 15.9549)
(-3.98946e-15 4.64075 16.6521)
(-4.54214e-15 4.26931 14.9301)
(-3.28048e-15 7.27731 13.9274)
(-1.25736e-15 -1.59339 9.50733)
(8.38034e-16 0.552588 8.95946)
(1.12895e-14 -1.1673 7.80387)
(1.4414e-14 -1.08155 -2.72832)
(2.33741e-15 -0.39413 -1.65223)
(5.32091e-16 -0.355657 -0.718824)
(1.05327e-16 -0.208348 -0.350985)
(-1.86408e-16 -0.882503 1.44604)
(-2.07661e-15 -1.57087 2.63282)
(-1.72519e-17 -1.74249 2.95767)
(1.30883e-15 -2.83559 5.53359)
(1.14468e-15 -3.58824 5.43072)
(1.12314e-15 -4.42854 5.53493)
(8.74199e-16 -4.76207 5.67592)
(7.44944e-17 -6.59954 8.20118)
(-9.8262e-16 -6.54526 6.80659)
(-2.00124e-15 -7.46449 7.28396)
(-2.78327e-15 -8.45686 7.73532)
(-3.55673e-15 -12.6776 12.0543)
(-5.75595e-16 -8.62354 12.4793)
(-1.42111e-15 -8.83167 14.0088)
(-2.16229e-15 -8.61049 13.665)
(-3.86111e-15 -8.78328 13.3006)
(-5.68051e-15 -8.79881 12.9492)
(-6.59035e-15 -8.9372 12.8447)
(-6.24532e-15 -9.01551 12.9959)
(-5.00677e-15 -9.10975 13.1935)
(-3.33179e-15 -9.14673 13.1714)
(-1.78582e-15 -9.11682 12.778)
(-8.12408e-16 -9.00975 12.0863)
(-3.25061e-16 -8.82785 11.2754)
(-7.54162e-17 -8.53905 10.5762)
(-9.23422e-16 -4.72733 4.82558)
(8.19286e-16 -5.28298 8.83414)
(6.01766e-16 -4.69746 9.05162)
(4.59932e-16 -4.4334 9.31634)
(1.78533e-16 -4.03706 8.41274)
(-2.56997e-16 -4.29982 5.56226)
(-1.60468e-15 -3.96487 -0.373506)
(-1.09342e-15 -3.62745 -3.52484)
(-1.4182e-15 -3.94181 -1.68393)
(-1.97969e-15 -3.68393 -2.70672)
(-2.0141e-15 -3.20879 -1.31275)
(-2.09131e-15 -2.82387 -1.41224)
(-2.54454e-15 -3.24524 -1.61233)
(-1.62582e-15 -2.62195 -0.939742)
(-1.82099e-15 -2.38784 -0.982089)
(-2.12144e-15 -2.79097 -1.14661)
(-9.80692e-16 -2.30079 -0.684286)
(-9.18479e-16 -2.11438 -0.72766)
(-7.67466e-16 -2.51264 -0.821689)
(2.22324e-16 -2.0862 -0.440781)
(3.36593e-16 -2.15673 -0.446515)
(2.99998e-16 -1.87075 -0.408685)
(3.54408e-16 -2.45413 -0.448945)
(2.35841e-16 -2.19349 -0.316724)
(2.26542e-16 -1.77811 -0.278275)
(1.92665e-16 -2.2925 -0.23022)
(-2.01395e-17 -3.64039 -0.0855663)
(-1.08433e-12 334.325 228.658)
(4.90465e-14 -55.9297 -83.904)
(6.06935e-14 -60.0395 -8.33211)
(-1.39389e-14 14.7524 65.3725)
(6.47293e-16 -6.02803 -9.99528)
(1.90731e-15 -8.38216 -6.47893)
(1.31532e-16 -1.63926 3.29104)
(1.87779e-17 1.39895 3.24044)
(5.79591e-17 3.48853 2.29821)
(-4.96994e-17 5.08689 3.2045)
(2.78949e-16 5.96514 3.56272)
(7.23765e-16 5.6023 0.607801)
(1.02046e-15 3.58307 -2.04789)
(3.83868e-16 -0.756894 -2.54754)
(3.60868e-17 -2.73841 -0.988139)
(-4.25618e-18 -2.58255 0.0898678)
(3.12932e-19 -2.4299 0.123454)
(2.39929e-19 -2.30927 -0.0533404)
(7.11883e-18 -2.53737 0.3628)
(3.5047e-13 -106.313 -75.8225)
(4.50664e-14 31.1927 88.8658)
(8.66849e-14 -59.7496 -14.4152)
(2.90827e-14 4.93023 21.9738)
(-3.67424e-15 15.4107 3.4902)
(2.32748e-15 -5.26147 -7.92682)
(2.60353e-15 -4.27319 -1.32374)
(1.04243e-15 -0.864864 1.15555)
(-5.41264e-17 0.602556 -0.934416)
(-1.43916e-16 0.16612 -1.43037)
(1.30513e-16 0.206058 -1.59735)
(7.50117e-16 1.31771 -1.75138)
(9.0153e-16 0.619161 -2.24449)
(7.84817e-16 -1.83854 -2.96394)
(2.0197e-16 -2.84227 -2.05484)
(-4.39313e-18 -2.47153 -0.376278)
(-1.75744e-18 -2.11529 0.203839)
(-3.19288e-18 -2.04132 -0.1022)
(1.14278e-17 -2.28765 0.534464)
(2.58676e-14 112.023 9.28028)
(8.15316e-14 10.7258 -5.02477)
(9.57044e-14 -38.7182 -11.3829)
(4.53772e-14 -4.48571 -14.3782)
(4.70784e-16 8.42021 -1.17264)
(2.43955e-15 -2.98264 -4.25582)
(3.78814e-15 -4.7207 -3.0682)
(2.16981e-15 -1.23167 -2.02735)
(1.04751e-16 1.86365 -2.07769)
(-3.49579e-16 2.04361 -1.55444)
(1.45006e-16 2.91606 -0.978688)
(1.02401e-15 3.53072 -1.26014)
(8.86331e-16 2.28383 -2.15227)
(8.61805e-16 -1.20711 -2.80939)
(3.11534e-16 -2.82296 -2.18802)
(1.55649e-17 -2.4407 -0.825814)
(-6.52111e-18 -1.68677 0.00129316)
(-2.04869e-18 -1.53466 -0.137515)
(1.06807e-17 -1.48849 0.213714)
(1.01585e-13 7.55202 -0.124424)
(1.16939e-13 -16.078 41.0134)
(8.93872e-14 -34.5136 -4.70657)
(-2.31087e-14 9.04955 9.7751)
(-2.5568e-15 10.425 3.89941)
(3.09517e-15 -3.63226 0.744516)
(3.08314e-15 -4.71019 -2.22365)
(1.57401e-15 -1.01926 -2.75973)
(4.21861e-17 1.44199 -2.89791)
(-2.82223e-16 1.0945 -2.05201)
(3.44103e-16 1.5808 -0.58971)
(1.1331e-15 2.83687 -0.346559)
(7.68248e-16 1.99476 -0.950934)
(7.60307e-16 -1.21247 -2.18857)
(3.46456e-16 -3.22582 -1.84069)
(4.06214e-17 -2.97735 -0.855594)
(-9.22134e-18 -2.03674 -0.223516)
(-4.27674e-18 -1.74697 -0.171861)
(1.01369e-16 -1.4911 -0.27262)
(8.48691e-14 45.6469 11.57)
(1.04987e-13 10.9968 15.9931)
(8.10261e-14 -31.769 2.4151)
(-9.08575e-15 -0.550057 0.508754)
(-2.35516e-15 9.79291 5.84342)
(1.84843e-15 -2.04702 3.26425)
(1.25943e-15 -3.49295 -1.28655)
(3.83654e-16 -0.760111 -2.77243)
(-1.40847e-16 1.38615 -2.49252)
(-1.19002e-16 0.777551 -1.04378)
(8.39848e-16 1.77939 1.58221)
(1.09319e-15 3.32039 1.54609)
(7.73952e-16 2.76793 1.46933)
(7.65224e-16 -1.44162 -1.10476)
(3.74981e-16 -3.44452 -1.18359)
(6.9765e-17 -3.23973 -0.52232)
(-7.07629e-18 -2.23025 -0.309511)
(-2.13003e-18 -1.82462 -0.320691)
(3.02863e-16 -1.17747 -0.887665)
(8.69903e-14 16.8806 15.5759)
(8.67551e-14 -3.16106 23.9179)
(7.01499e-14 -25.5382 8.0755)
(-3.89825e-15 2.63622 -7.93106)
(-1.76047e-15 8.1341 6.06708)
(5.30789e-16 -0.0906967 1.76905)
(-2.12461e-16 -2.16256 0.0251757)
(-6.66753e-16 -0.650346 -3.26382)
(-1.7267e-16 0.759338 -1.49377)
(2.18219e-16 -0.340915 0.63853)
(1.01924e-15 1.15044 3.23881)
(9.93013e-16 3.07696 3.99658)
(8.50627e-16 3.04465 4.42703)
(6.67408e-16 -0.953919 1.47599)
(4.0263e-16 -3.25246 -0.32407)
(1.04743e-16 -3.24946 0.241271)
(-2.5554e-18 -2.16438 -0.240803)
(-1.00355e-16 -1.58571 -0.273381)
(8.4659e-16 -1.04141 -2.09806)
(8.52978e-14 19.8454 21.3248)
(6.68545e-14 0.709263 18.5643)
(5.73228e-14 -17.6113 11.3531)
(-2.91167e-15 3.02609 -10.0503)
(-7.14098e-16 5.91887 7.18361)
(2.28769e-16 0.43903 1.27943)
(-8.60674e-16 -0.746975 1.43423)
(-7.37597e-16 -0.157332 -3.6493)
(1.62842e-16 -0.455195 -0.0186993)
(6.66969e-16 -1.35289 2.20086)
(1.02087e-15 0.515726 5.15854)
(8.45861e-16 2.82679 7.00975)
(7.61953e-16 3.4895 7.72517)
(6.1942e-16 0.38474 4.96676)
(3.3536e-16 -2.81307 0.835047)
(1.65912e-16 -3.05982 1.13089)
(4.41683e-17 -1.99509 0.30498)
(4.75307e-17 -1.2772 -0.244937)
(-4.18687e-16 0.881005 -1.90968)
(8.27187e-14 7.86606 23.5012)
(4.68911e-14 0.99147 15.1948)
(4.38028e-14 -10.7039 12.053)
(-1.84664e-15 3.26112 -8.51649)
(-6.06764e-16 4.18583 8.29951)
(1.83663e-16 1.20696 3.42387)
(-3.51911e-16 0.315836 3.64705)
(1.73252e-16 -0.332333 1.98525)
(7.08452e-16 -1.38354 2.91093)
(1.02876e-15 -2.15213 4.02212)
(8.92103e-16 -0.584887 6.87055)
(3.62173e-16 2.19204 9.52371)
(2.85175e-16 3.77538 10.5323)
(5.85358e-16 2.03912 8.84947)
(3.20871e-16 -1.96642 3.34895)
(7.48541e-17 -3.05506 1.0883)
(-1.41813e-18 -1.6203 0.0938474)
(-2.66974e-16 -0.760905 -1.82813)
(-3.05796e-15 -3.90718 1.07249)
(7.95858e-14 5.43738 26.2025)
(2.79013e-14 0.624422 10.2058)
(3.25616e-14 -5.08523 11.566)
(-1.12244e-15 2.38101 -7.21032)
(-1.34551e-15 2.39732 9.01775)
(-1.20496e-15 1.45856 5.40175)
(-5.88447e-16 0.506763 6.13627)
(3.82861e-16 -0.120338 4.73106)
(8.77097e-16 -1.59538 5.07001)
(9.63556e-16 -2.86577 5.75145)
(3.97545e-16 -1.70925 8.09029)
(-7.96755e-16 1.47324 10.8004)
(-8.97861e-16 3.67975 11.8282)
(4.56413e-16 3.22013 11.7538)
(1.09176e-15 0.453161 8.75988)
(3.25853e-16 -1.30391 4.40966)
(8.92682e-17 -0.83469 3.75119)
(-4.63987e-16 -1.91162 4.94513)
(-1.09724e-15 -4.75807 6.60414)
(6.51222e-14 -0.016518 27.7589)
(-2.82248e-15 1.39291 8.61443)
(1.00289e-14 0.764638 11.6695)
(-6.07741e-16 0.717753 -5.86144)
(-1.76776e-15 1.02815 9.14438)
(-3.08996e-15 1.63708 5.87955)
(-4.07389e-15 0.767016 7.26196)
(1.05992e-15 -0.0182898 6.65909)
(1.38745e-15 -1.7705 7.267)
(1.19934e-15 -3.35652 7.63461)
(-3.35783e-16 -2.63095 9.11548)
(-2.67743e-15 0.786444 11.057)
(-2.44026e-15 3.33394 11.609)
(-1.22532e-16 3.06382 12.3239)
(2.00845e-15 0.493108 12.695)
(9.19215e-16 -1.28836 11.4571)
(8.23067e-16 -1.72917 10.5326)
(8.32028e-16 -2.74879 10.1499)
(9.84759e-16 -4.26489 8.44177)
(4.22111e-14 -2.53427 25.7626)
(-2.45854e-14 1.63703 9.84907)
(-2.43794e-15 6.41191 12.0216)
(-1.32258e-16 -1.22361 -5.82792)
(5.71132e-16 0.21057 8.74198)
(8.53911e-16 1.53276 5.40733)
(1.92096e-15 0.547416 7.89932)
(-5.03643e-16 -0.248061 8.34976)
(1.3919e-15 -1.99474 9.5129)
(1.05093e-15 -3.61455 9.81969)
(-1.03836e-15 -3.0705 10.3588)
(-3.34038e-15 0.584673 10.5196)
(-2.78462e-15 3.25891 9.84235)
(-1.42863e-15 3.01856 11.4205)
(1.0778e-15 1.09439 12.291)
(2.57816e-15 -0.0786815 10.9991)
(2.03272e-15 -0.0548814 10.0636)
(1.21583e-15 -0.791508 8.6862)
(1.95254e-16 -2.3743 5.73562)
(3.38091e-14 -8.71552 23.1725)
(-2.2417e-14 1.86908 11.5472)
(-3.40329e-15 11.3641 11.6243)
(-8.44964e-16 -2.29218 -6.97429)
(-1.16452e-15 -0.851088 7.98373)
(-2.2456e-15 1.15168 4.57376)
(-1.83684e-15 -0.161774 8.44386)
(-1.22073e-15 -0.788653 9.69105)
(-2.40784e-16 -2.35929 11.3757)
(-2.84132e-16 -3.69175 11.7311)
(-1.4465e-15 -2.84911 10.7452)
(-1.82018e-15 0.9089 7.4243)
(-1.32993e-15 2.86779 5.89719)
(-2.09111e-15 1.82732 10.34)
(-1.39038e-15 0.366638 14.3419)
(5.21491e-16 -0.626807 14.0129)
(1.73217e-15 -1.21636 12.29)
(2.89483e-15 -2.30294 9.41596)
(4.89564e-15 -2.88485 4.86605)
(2.76743e-14 -11.4136 19.9902)
(-1.77169e-14 2.48258 14.9923)
(-5.29269e-15 17.2177 10.9056)
(-1.72598e-15 -3.54452 -9.08426)
(-1.82667e-15 -2.28653 7.32305)
(-2.18483e-15 0.683761 3.50729)
(-2.57428e-15 -1.19859 8.10172)
(-2.39516e-15 -1.49089 9.76265)
(-1.8976e-15 -2.797 11.7691)
(-1.64084e-15 -3.37958 11.8323)
(-1.50595e-15 -1.44335 8.88013)
(-9.44615e-16 2.28985 3.84855)
(-9.4976e-16 2.2841 3.01112)
(-2.38788e-15 -0.199979 7.16207)
(-3.59077e-15 -0.377533 11.767)
(-3.99598e-15 0.772723 13.2705)
(-4.26048e-15 2.1702 14.2364)
(-4.31486e-15 3.9271 15.73)
(-4.0232e-15 5.97653 16.2356)
(2.08604e-14 -23.0119 17.2471)
(-1.29167e-14 1.33477 16.5468)
(-5.64745e-15 23.8867 9.59519)
(-2.94491e-15 -1.94617 -8.81863)
(-2.33133e-15 -4.51596 5.44067)
(-1.51782e-15 0.206836 2.70954)
(-2.76613e-15 -2.43268 6.66531)
(-2.98583e-15 -2.29966 8.33168)
(-2.69708e-15 -3.16111 10.096)
(-2.21958e-15 -2.52945 9.36868)
(-1.56359e-15 0.460032 5.2498)
(-1.26033e-15 3.07299 2.40202)
(-9.76776e-16 1.80978 2.44351)
(-2.04369e-15 -1.4746 3.98766)
(-2.74681e-15 -1.72411 6.10471)
(-1.59892e-15 -0.992612 3.58828)
(-1.07304e-16 -1.23547 0.280551)
(-3.32487e-16 -2.92146 -1.94935)
(-1.97104e-15 -2.82486 6.2974)
(1.20372e-14 -19.0697 11.8915)
(-9.39282e-15 6.22529 20.194)
(-5.39848e-15 29.6589 7.27419)
(-3.39049e-15 -3.27359 -1.39395)
(-2.79101e-15 -6.2937 4.96376)
(-6.54731e-16 0.0250646 2.12702)
(-2.62331e-15 -3.35976 4.75447)
(-3.08784e-15 -2.81002 6.10077)
(-2.90091e-15 -3.1358 7.22885)
(-2.351e-15 -1.48752 5.80943)
(-1.74082e-15 1.44981 2.14286)
(-1.59715e-15 3.26096 1.70063)
(-6.97499e-16 1.88303 1.56804)
(-1.26494e-15 -1.76283 1.29891)
(-2.00402e-15 -1.08784 2.35926)
(-7.68466e-16 1.9212 -0.298307)
(-1.08069e-16 2.23797 0.250917)
(6.23868e-16 -0.425888 -2.85135)
(-8.06583e-16 -1.66488 0.656522)
(4.57479e-15 -46.8781 7.58804)
(-6.85824e-15 -9.40612 13.6822)
(-5.03053e-15 33.4189 3.34941)
(-3.6161e-15 1.48534 9.16035)
(-2.97724e-15 -6.64555 4.56074)
(-5.40453e-16 0.77696 1.66332)
(-2.2464e-15 -4.35207 2.7159)
(-2.90025e-15 -3.29077 3.93315)
(-2.86468e-15 -3.18828 4.25295)
(-2.34931e-15 -0.646681 2.57684)
(-1.95004e-15 1.97993 0.580916)
(-2.25826e-15 3.33976 0.652437)
(-8.89558e-16 2.20764 0.88381)
(-4.41396e-16 -1.61453 -0.103142)
(-1.29384e-15 -1.02436 0.0975816)
(-5.20746e-16 0.853239 -0.836916)
(-9.00737e-17 1.01075 0.257581)
(2.43874e-16 -0.656342 0.420162)
(9.38221e-18 -1.19399 -1.60849)
(-2.64262e-15 -6.34718 -2.59802)
(-4.99685e-15 14.9379 42.1749)
(-4.44216e-15 35.1114 -2.83786)
(-3.53054e-15 -11.0375 13.0624)
(-2.8426e-15 -4.90109 2.10007)
(-9.76369e-16 1.24258 1.51469)
(-1.84318e-15 -4.35102 0.252406)
(-2.58337e-15 -3.07838 2.0988)
(-2.68516e-15 -2.35896 1.78032)
(-2.41282e-15 0.636598 0.0649116)
(-2.40383e-15 2.0945 -0.803516)
(-3.32092e-15 3.20409 -1.1042)
(-1.54279e-15 2.19643 0.0707198)
(-2.04645e-17 -1.24772 -0.110245)
(-5.79451e-16 -0.986157 -0.771791)
(-1.35315e-16 1.16596 -0.869859)
(3.14861e-18 1.24297 -0.0388764)
(-1.69806e-17 -0.270882 0.786392)
(3.61328e-16 -1.04697 -1.76226)
(-4.85675e-15 -114.144 11.4623)
(-8.49402e-15 -6.96131 -4.2132)
(-3.65438e-15 40.3178 -9.43968)
(-2.99476e-15 10.9438 -16.0005)
(-2.91117e-15 -3.85153 -2.00384)
(-1.35252e-15 1.37688 2.6994)
(-1.75879e-15 -5.90061 -1.9684)
(-2.43093e-15 -4.18875 0.140796)
(-2.51826e-15 -3.14061 -0.080044)
(-2.2365e-15 -1.22697 -1.60311)
(-3.28801e-15 2.09613 -2.86999)
(-4.19487e-15 2.8928 -2.7366)
(-2.14724e-15 1.75245 -0.701012)
(3.2032e-17 -1.17321 0.0406599)
(-1.61074e-16 -0.928067 -0.740216)
(-4.06999e-18 0.796209 -0.783808)
(4.21423e-18 0.687634 -0.0835356)
(1.84302e-18 0.0648418 0.480221)
(3.34543e-16 -0.778724 -1.13268)
(-1.50204e-14 109.282 -74.7808)
(-4.77457e-15 -35.878 89.8185)
(-2.61998e-15 60.5931 -13.9632)
(-3.35118e-15 -9.77657 27.6195)
(-2.53441e-15 -11.72 3.69382)
(-1.5997e-15 4.28341 3.32218)
(-1.42052e-15 -1.02743 -3.01789)
(-2.20535e-15 -2.55596 -0.404304)
(-1.82588e-15 0.36403 -0.49296)
(-2.89594e-15 3.04021 -3.89161)
(-4.1603e-15 3.47534 -4.68873)
(-3.92908e-15 2.68216 -2.97099)
(-1.72878e-15 1.0939 -0.39107)
(1.49224e-17 -0.757106 0.380205)
(-1.89108e-17 -0.624477 -0.468236)
(4.85531e-18 0.830325 -0.56575)
(3.37935e-19 0.708167 0.0475095)
(1.66927e-17 0.302402 0.48052)
(1.86765e-16 -0.465261 -0.444833)
(1.16501e-14 -342.033 239.627)
(-1.72227e-15 60.7525 -85.7737)
(-1.36819e-15 63.17 -9.98777)
(-1.34727e-15 -6.77734 64.7519)
(-6.5434e-16 8.53787 -10.689)
(-1.40698e-15 2.13294 2.3581)
(-5.65216e-15 -10.7466 7.06949)
(-3.9569e-15 -7.53597 -2.63983)
(-4.29978e-15 -5.09505 -5.7043)
(-4.1003e-15 -1.67405 -6.08352)
(-2.73994e-15 1.57199 -3.57242)
(-1.11512e-15 1.95601 -0.829665)
(-1.21482e-16 0.350416 0.957308)
(3.04637e-17 -1.96234 1.42797)
(7.79158e-18 -1.09213 0.0382421)
(-1.23861e-18 0.934995 -0.225905)
(-3.20877e-19 0.62042 0.144106)
(7.2392e-18 0.204676 0.402123)
(4.88938e-17 -0.722028 0.461571)
(9.72617e-17 5.44285 9.90774)
(-5.38393e-15 10.157 17.2676)
(-4.9862e-15 10.1924 17.1545)
(-4.53234e-15 9.90223 16.4262)
(-4.45406e-15 9.89113 16.2367)
(-6.15708e-15 9.94421 16.1718)
(-4.81986e-15 9.80918 15.8084)
(-4.30656e-15 9.75522 15.7431)
(-4.03031e-15 9.71284 15.7495)
(-4.2004e-15 9.68215 15.751)
(-4.46857e-15 9.6398 15.7569)
(-4.15678e-15 9.59734 15.7641)
(-4.084e-15 9.55724 15.7672)
(-4.52954e-15 9.50817 15.7741)
(-4.40028e-15 9.47085 15.767)
(-4.34424e-15 9.40805 15.7651)
(-4.11712e-15 9.38004 15.7456)
(-4.58626e-15 9.58859 16.2396)
(-4.59448e-15 9.87176 16.6535)
(-6.46798e-15 5.59226 9.40054)
(4.51878e-17 4.99669 8.45109)
(-4.33282e-15 9.24627 15.8872)
(-3.83605e-15 8.98111 15.525)
(-3.46004e-15 8.71971 15.08)
(-3.5814e-15 8.70408 15.1329)
(-5.67551e-15 8.73656 15.1793)
(-3.42839e-15 8.77595 15.2994)
(-3.76249e-15 8.81338 15.3245)
(-3.44424e-15 8.82261 15.3498)
(-3.56123e-15 8.84252 15.3695)
(-3.70908e-15 8.85424 15.391)
(-3.75692e-15 8.8661 15.4106)
(-3.6253e-15 8.87875 15.4271)
(-4.27764e-15 8.88244 15.4475)
(-3.95506e-15 8.89923 15.4571)
(-3.70128e-15 8.88746 15.4709)
(-3.60977e-15 8.92664 15.4922)
(-3.76929e-15 9.1748 15.9819)
(-3.89716e-15 9.41854 16.343)
(-5.38321e-15 5.24306 9.18921)
(2.04766e-18 5.54882 9.65294)
(-1.4989e-15 9.60698 16.4411)
(-1.17223e-15 9.2908 16.0052)
(-1.08511e-15 9.05712 15.5297)
(-1.28391e-15 9.02215 15.5113)
(-3.27953e-15 9.03954 15.5072)
(-1.69947e-15 9.01586 15.4941)
(-1.61426e-15 9.01572 15.4905)
(-1.65003e-15 9.00573 15.4964)
(-1.58418e-15 9.00435 15.4985)
(-1.58669e-15 8.99751 15.5043)
(-1.68794e-15 8.9931 15.5103)
(-1.56493e-15 8.9903 15.5157)
(-1.74577e-15 8.9816 15.5262)
(-1.56442e-15 8.98459 15.5295)
(-1.729e-15 8.96463 15.5393)
(-1.41599e-15 8.98229 15.5439)
(-1.67685e-15 9.18915 15.9854)
(-1.65393e-15 9.51643 16.492)
(-2.32035e-15 5.56741 9.78883)
(-2.30352e-18 5.62873 9.71305)
(3.45219e-16 9.48087 16.2838)
(3.18071e-16 9.10578 15.7241)
(2.97209e-16 8.89809 15.3268)
(3.24713e-16 8.87838 15.3414)
(-1.9248e-15 8.8971 15.3492)
(-1.65616e-15 8.88942 15.367)
(-1.73876e-15 8.89914 15.3699)
(-1.50092e-15 8.89399 15.3801)
(-1.39984e-15 8.89899 15.3851)
(-1.75659e-15 8.8974 15.3934)
(-1.81541e-15 8.89869 15.4006)
(-1.64494e-15 8.90038 15.4071)
(-1.79256e-15 8.89729 15.4171)
(-1.65127e-15 8.90368 15.4206)
(-1.55452e-15 8.89006 15.4288)
(-1.68844e-15 8.90778 15.4321)
(-1.6667e-15 9.10011 15.8259)
(-1.58572e-15 9.45947 16.4067)
(-2.78448e-15 5.70634 9.99264)
(9.77893e-19 5.86198 10.1465)
(-7.85031e-17 9.52071 16.345)
(-7.49749e-17 9.10552 15.7261)
(-7.14401e-17 8.9205 15.3576)
(-7.95555e-17 8.89888 15.3678)
(4.49509e-16 8.91402 15.3703)
(3.76986e-16 8.90159 15.3786)
(3.86747e-16 8.90684 15.3788)
(3.85413e-16 8.89962 15.3859)
(3.76283e-16 8.90151 15.3886)
(3.8105e-16 8.89753 15.3945)
(3.87304e-16 8.89676 15.3994)
(3.67599e-16 8.89605 15.4041)
(4.0764e-16 8.89198 15.4118)
(3.79509e-16 8.89604 15.4142)
(4.02696e-16 8.88318 15.421)
(3.44279e-16 8.89614 15.419)
(4.04004e-16 9.06425 15.7676)
(3.95258e-16 9.4636 16.4168)
(5.49433e-16 5.91698 10.3656)
(-3.41126e-19 6.03167 10.4223)
(1.88098e-17 9.49149 16.3052)
(1.76188e-17 9.04647 15.6244)
(1.68183e-17 8.88234 15.2995)
(1.77673e-17 8.86579 15.3147)
(-1.05695e-16 8.87993 15.3181)
(-9.39022e-17 8.86964 15.3282)
(-9.03208e-17 8.8754 15.3295)
(-9.3879e-17 8.8692 15.3372)
(-9.63493e-17 8.87171 15.3404)
(-9.52682e-17 8.86836 15.3468)
(-8.95583e-17 8.86843 15.3518)
(-9.22206e-17 8.86782 15.357)
(-1.02362e-16 8.86494 15.3644)
(-9.48675e-17 8.86848 15.3675)
(-9.9236e-17 8.85797 15.3746)
(-8.19307e-17 8.86775 15.3707)
(-9.46672e-17 9.01448 15.6753)
(-9.65786e-17 9.44241 16.3808)
(-1.2397e-16 6.10604 10.6845)
(1.05579e-19 6.22645 10.7588)
(-4.60203e-18 9.48176 16.2907)
(-4.20812e-18 9.0117 15.565)
(-3.95658e-18 8.86887 15.2777)
(-3.9892e-18 8.8541 15.294)
(2.48662e-17 8.86665 15.2962)
(2.31075e-17 8.85654 15.3051)
(2.09524e-17 8.86143 15.306)
(2.179e-17 8.85535 15.313)
(2.32839e-17 8.85736 15.3158)
(2.30358e-17 8.85382 15.3217)
(2.17945e-17 8.85386 15.3262)
(2.2479e-17 8.85268 15.3311)
(2.52795e-17 8.85034 15.3376)
(2.28158e-17 8.85283 15.3409)
(2.36816e-17 8.84401 15.3475)
(2.07074e-17 8.85101 15.3422)
(2.34436e-17 8.97748 15.6064)
(2.39059e-17 9.42577 16.3503)
(2.87133e-17 6.2986 11.0159)
(-2.9829e-20 6.41153 11.0714)
(1.11145e-18 9.45623 16.2522)
(1.00776e-18 8.96996 15.4926)
(9.2805e-19 8.84741 15.2436)
(9.25393e-19 8.83507 15.2612)
(-5.89316e-18 8.84641 15.2632)
(-5.68506e-18 8.83723 15.2717)
(-4.96539e-18 8.84177 15.273)
(-4.94822e-18 8.83626 15.2798)
(-5.58441e-18 8.83822 15.2828)
(-5.44018e-18 8.8349 15.2887)
(-5.3804e-18 8.83525 15.293)
(-5.34205e-18 8.83384 15.2982)
(-5.95338e-18 8.83229 15.3042)
(-5.42943e-18 8.83398 15.3081)
(-5.51436e-18 8.82703 15.3146)
(-5.26262e-18 8.83176 15.3091)
(-5.72224e-18 8.9399 15.5359)
(-5.92197e-18 9.39985 16.3048)
(-6.70184e-18 6.48384 11.3331)
(7.97969e-21 6.59994 11.3929)
(-2.62891e-19 9.42899 16.2097)
(-2.3936e-19 8.9335 15.43)
(-2.19031e-19 8.83042 15.2168)
(-2.22956e-19 8.81965 15.2346)
(1.40999e-18 8.82976 15.2361)
(1.37358e-18 8.82126 15.2441)
(1.19031e-18 8.82529 15.2455)
(1.14195e-18 8.82021 15.2519)
(1.35644e-18 8.82195 15.2548)
(1.28641e-18 8.81875 15.2605)
(1.30284e-18 8.81924 15.2646)
(1.24638e-18 8.81753 15.2698)
(1.36469e-18 8.81664 15.2753)
(1.28386e-18 8.81745 15.2795)
(1.29233e-18 8.81218 15.2857)
(1.30141e-18 8.81496 15.2805)
(1.33632e-18 8.90621 15.4728)
(1.4566e-18 9.36994 16.2526)
(1.57438e-18 6.66737 11.6485)
(-2.08456e-21 6.78584 11.709)
(6.15623e-20 9.39435 16.1551)
(5.6449e-20 8.89781 15.3686)
(5.21477e-20 8.81288 15.1893)
(5.5122e-20 8.80348 15.2069)
(-3.35362e-19 8.81247 15.2081)
(-3.24153e-19 8.80475 15.2156)
(-2.84569e-19 8.80831 15.2173)
(-2.71023e-19 8.80376 15.2233)
(-3.27255e-19 8.80528 15.2263)
(-3.04968e-19 8.80231 15.2319)
(-3.09601e-19 8.80294 15.2357)
(-2.88755e-19 8.80103 15.2411)
(-3.1227e-19 8.80079 15.2461)
(-3.03274e-19 8.80079 15.2508)
(-3.05419e-19 8.79718 15.2566)
(-3.12121e-19 8.79828 15.2524)
(-3.03573e-19 8.87425 15.4126)
(-3.51012e-19 9.33395 16.1903)
(-3.65799e-19 6.84835 11.9594)
(5.40081e-22 6.97119 12.0246)
(-1.44497e-20 9.35474 16.0918)
(-1.33001e-20 8.86497 15.3121)
(-1.24515e-20 8.79673 15.1641)
(-1.36731e-20 8.78834 15.181)
(7.88423e-20 8.79625 15.182)
(7.55626e-20 8.78928 15.189)
(6.74284e-20 8.79235 15.1908)
(6.56573e-20 8.7883 15.1965)
(7.70441e-20 8.78957 15.1995)
(7.20167e-20 8.78684 15.2049)
(7.33006e-20 8.78753 15.2086)
(6.71732e-20 8.78546 15.214)
(7.21272e-20 8.78579 15.2185)
(7.20662e-20 8.785 15.2237)
(7.18834e-20 8.78295 15.229)
(7.31843e-20 8.78258 15.226)
(6.89538e-20 8.8448 15.3569)
(8.27084e-20 9.29281 16.1193)
(8.34178e-20 7.02801 12.2682)
(-1.38998e-22 7.15505 12.3376)
(3.41369e-21 9.30928 16.0185)
(3.14906e-21 8.83427 15.2593)
(2.96788e-21 8.78113 15.1399)
(3.34508e-21 8.77353 15.1556)
(-1.84338e-20 8.78045 15.1566)
(-1.76163e-20 8.77422 15.1631)
(-1.59115e-20 8.77681 15.1651)
(-1.60048e-20 8.77328 15.1705)
(-1.77702e-20 8.77427 15.1736)
(-1.69024e-20 8.77184 15.1787)
(-1.7428e-20 8.77253 15.1823)
(-1.57738e-20 8.77039 15.1877)
(-1.68678e-20 8.7712 15.1918)
(-1.72561e-20 8.76971 15.1974)
(-1.68044e-20 8.76913 15.2021)
(-1.69891e-20 8.76745 15.2007)
(-1.59299e-20 8.81757 15.305)
(-1.92163e-20 9.2462 16.039)
(-1.88363e-20 7.20637 12.5746)
(3.53975e-23 7.3378 12.6486)
(-8.0921e-22 9.25839 15.9358)
(-7.5044e-22 8.8061 15.2109)
(-7.06074e-22 8.76635 15.1171)
(-8.02305e-22 8.75934 15.1314)
(4.31908e-21 8.76535 15.1324)
(4.12689e-21 8.75983 15.1384)
(3.77964e-21 8.76194 15.1406)
(3.8753e-21 8.75895 15.1456)
(4.08586e-21 8.75962 15.1487)
(3.96259e-21 8.75754 15.1536)
(4.15034e-21 8.75814 15.1572)
(3.73043e-21 8.75603 15.1625)
(3.98523e-21 8.75722 15.1663)
(4.14991e-21 8.75511 15.1722)
(3.92747e-21 8.75588 15.1763)
(3.95288e-21 8.75303 15.1767)
(3.74798e-21 8.79272 15.2572)
(4.45199e-21 9.19426 15.9497)
(4.25789e-21 7.38368 12.8791)
(-8.89466e-24 7.51934 12.9575)
(1.91514e-22 9.20191 15.8434)
(1.79414e-22 8.7803 15.1666)
(1.67927e-22 8.75222 15.0953)
(1.89058e-22 8.74564 15.1081)
(-1.01662e-21 8.75084 15.1091)
(-9.70942e-22 8.74601 15.1146)
(-9.09691e-22 8.74766 15.117)
(-9.26369e-22 8.74519 15.1216)
(-9.51254e-22 8.74554 15.1249)
(-9.34727e-22 8.74385 15.1295)
(-9.85107e-22 8.7443 15.133)
(-8.84023e-22 8.74232 15.1383)
(-9.4508e-22 8.74375 15.1417)
(-9.97851e-22 8.74117 15.1479)
(-9.23142e-22 8.74314 15.1514)
(-9.28238e-22 8.73922 15.1537)
(-8.9075e-22 8.77022 15.2133)
(-1.03668e-21 9.13694 15.8513)
(-9.66113e-22 7.55998 13.1815)
(2.20593e-24 7.69988 13.2645)
(-4.51166e-23 9.13992 15.7414)
(-4.28056e-23 8.75695 15.1265)
(-3.99486e-23 8.73877 15.0745)
(-4.40503e-23 8.73251 15.0858)
(2.39948e-22 8.73696 15.0868)
(2.29148e-22 8.73282 15.0919)
(2.21059e-22 8.73398 15.0945)
(2.18869e-22 8.73205 15.0987)
(2.25186e-22 8.73206 15.1021)
(2.22529e-22 8.73077 15.1064)
(2.32588e-22 8.731 15.1099)
(2.09295e-22 8.72928 15.115)
(2.23416e-22 8.73076 15.1183)
(2.39043e-22 8.72791 15.1246)
(2.18396e-22 8.73088 15.1275)
(2.19899e-22 8.726 15.1316)
(2.12109e-22 8.75007 15.1733)
(2.43359e-22 9.0742 15.7438)
(2.19358e-22 7.7353 13.4818)
(-5.41591e-25 7.87976 13.5702)
(1.05787e-23 9.0725 15.6298)
(1.01508e-23 8.73613 15.0909)
(9.49939e-24 8.72618 15.055)
(1.02292e-23 8.72014 15.0647)
(-5.66772e-23 8.72388 15.0658)
(-5.41978e-23 8.72045 15.0704)
(-5.36952e-23 8.7211 15.0731)
(-5.13801e-23 8.71966 15.077)
(-5.38392e-23 8.71936 15.0804)
(-5.33006e-23 8.71842 15.0844)
(-5.4674e-23 8.71839 15.088)
(-4.95138e-23 8.71701 15.0927)
(-5.2475e-23 8.71831 15.0959)
(-5.69095e-23 8.71547 15.1022)
(-5.18738e-23 8.71909 15.1046)
(-5.22795e-23 8.7134 15.1105)
(-5.04371e-23 8.73225 15.1373)
(-5.76088e-23 9.00612 15.6274)
(-4.97582e-23 7.90968 13.7798)
(1.32302e-25 8.05937 13.8752)
(-2.47453e-24 8.99947 15.5081)
(-2.39049e-24 8.7178 15.0597)
(-2.25649e-24 8.71455 15.0366)
(-2.38406e-24 8.70877 15.0447)
(1.34012e-23 8.71173 15.0461)
(1.28218e-23 8.70916 15.0501)
(1.29213e-23 8.70929 15.053)
(1.20529e-23 8.7083 15.0564)
(1.28701e-23 8.7078 15.0598)
(1.27661e-23 8.70711 15.0635)
(1.28261e-23 8.70685 15.0671)
(1.17281e-23 8.70587 15.0715)
(1.22586e-23 8.70673 15.0749)
(1.34458e-23 8.70427 15.0808)
(1.23341e-23 8.70799 15.0831)
(1.24049e-23 8.70175 15.0903)
(1.19841e-23 8.71697 15.1052)
(1.37541e-23 8.93308 15.5027)
(1.1308e-23 8.08318 14.0752)
(-3.23146e-26 8.23966 14.1804)
(5.79101e-25 8.92059 15.3748)
(5.60191e-25 8.70165 15.0324)
(5.35307e-25 8.70362 15.0189)
(5.59714e-25 8.6985 15.0253)
(-3.17421e-24 8.70034 15.0269)
(-3.02468e-24 8.69872 15.0302)
(-3.06867e-24 8.69839 15.033)
(-2.83434e-24 8.6977 15.0361)
(-3.05362e-24 8.69712 15.0394)
(-3.04032e-24 8.69657 15.0428)
(-3.00871e-24 8.69617 15.0463)
(-2.78486e-24 8.69556 15.0503)
(-2.85655e-24 8.69586 15.054)
(-3.15173e-24 8.69426 15.0593)
(-2.92797e-24 8.69725 15.0619)
(-2.92803e-24 8.69129 15.07)
(-2.84796e-24 8.70425 15.0762)
(-3.31116e-24 8.85558 15.3705)
(-2.58785e-24 8.25515 14.3662)
(8.00753e-27 8.42319 14.4926)
(-1.37405e-25 8.83808 15.2311)
(-1.3242e-25 8.69069 15.012)
(-1.28248e-25 8.69522 15.0051)
(-1.33522e-25 8.69182 15.0089)
(7.61668e-25 8.69212 15.0105)
(7.16353e-25 8.69115 15.0126)
(7.27707e-25 8.69035 15.0148)
(6.75612e-25 8.68951 15.0171)
(7.24857e-25 8.68862 15.0197)
(7.25518e-25 8.68775 15.0224)
(7.14043e-25 8.68688 15.0254)
(6.70242e-25 8.68604 15.0287)
(6.72564e-25 8.68543 15.0321)
(7.41408e-25 8.68433 15.0364)
(6.99547e-25 8.68532 15.0397)
(6.93686e-25 8.68103 15.0469)
(6.83935e-25 8.69107 15.0483)
(8.11251e-25 8.77265 15.2324)
(6.03651e-25 8.42326 14.6449)
(-1.68932e-27 8.61058 14.8239)
(2.75248e-26 8.7527 15.0801)
(2.65138e-26 8.69281 15.0032)
(2.58734e-26 8.695 15.0014)
(2.70727e-26 8.69442 15.0021)
(-1.53126e-25 8.69407 15.0026)
(-1.42171e-25 8.69366 15.0031)
(-1.44397e-25 8.69304 15.0038)
(-1.36059e-25 8.69232 15.0046)
(-1.43756e-25 8.69143 15.0056)
(-1.44399e-25 8.69038 15.0067)
(-1.42532e-25 8.68914 15.008)
(-1.36053e-25 8.68772 15.0095)
(-1.33768e-25 8.68604 15.0113)
(-1.46626e-25 8.68417 15.0133)
(-1.40113e-25 8.68208 15.0156)
(-1.37658e-25 8.67892 15.0189)
(-1.38029e-25 8.67938 15.02)
(-1.68553e-25 8.69418 15.0844)
(-1.19593e-25 8.5934 14.8933)
(4.03604e-26 -2.60978 17.0542)
(9.86687e-26 -8.0534 13.6868)
(-5.1964e-25 -5.18739 14.529)
(-2.92241e-24 -5.0011 14.1337)
(-5.01496e-24 -4.08918 14.0875)
(4.85953e-24 -3.53615 13.909)
(4.58911e-23 -2.97724 13.7487)
(1.19002e-22 -2.52732 13.5606)
(1.68881e-22 -2.14285 13.3585)
(8.67173e-23 -1.83154 13.1342)
(-2.08268e-22 -1.5832 12.8825)
(-6.63156e-22 -1.39534 12.5983)
(-1.07524e-21 -1.2681 12.2816)
(-1.19985e-21 -1.21505 11.9306)
(-8.84997e-22 -1.25637 11.5387)
(-1.0437e-22 -1.36341 11.1207)
(1.0877e-21 -1.55811 10.6333)
(2.34579e-21 -2.08283 9.77192)
(2.41321e-21 -2.13927 8.40914)
(-5.77804e-23 0.285507 6.02821)
(4.63318e-26 -11.0993 28.3962)
(3.01121e-25 -17.0278 24.829)
(-3.82151e-25 -11.972 25.2177)
(-5.54879e-24 -12.6632 23.4621)
(-1.37185e-23 -10.9217 22.6912)
(-2.15875e-24 -10.2707 21.5687)
(7.74261e-23 -9.28248 20.6274)
(2.60992e-22 -8.51924 19.6604)
(4.82867e-22 -7.76408 18.75)
(4.84887e-22 -7.10277 17.8706)
(-1.0479e-22 -6.50672 17.0301)
(-1.35938e-21 -5.98238 16.1903)
(-2.65146e-21 -5.50031 15.2812)
(-3.02188e-21 -5.03079 14.2223)
(-2.23747e-21 -4.54939 12.9535)
(-1.85855e-21 -3.98861 11.4011)
(-7.35378e-21 -3.21527 9.366)
(-3.1615e-20 -2.17934 6.31327)
(-8.98769e-20 -0.661586 1.62434)
(-1.45262e-19 1.36036 -3.1878)
(2.23243e-26 -14.0052 30.2198)
(6.24896e-25 -17.9293 27.3285)
(1.25958e-25 -13.2113 27.1897)
(-6.52401e-24 -14.1257 24.8068)
(-1.4508e-23 -12.0159 23.861)
(1.07114e-23 -11.5306 22.2589)
(9.46973e-23 -10.3905 21.0596)
(1.32479e-22 -9.63162 19.7714)
(-9.24975e-23 -8.78142 18.5892)
(-3.78495e-22 -7.99577 17.3553)
(6.51449e-22 -7.14449 15.9936)
(5.06552e-21 -6.23259 14.3803)
(1.31693e-20 -5.29849 12.5184)
(2.15573e-20 -4.44411 10.5289)
(2.40562e-20 -3.68542 8.53705)
(1.22993e-20 -2.92567 6.4952)
(-2.82238e-20 -2.04873 4.08764)
(-1.18092e-19 -0.778095 0.724853)
(-3.03315e-19 1.20352 -3.07231)