/*--------------------------------*- C++ -*----------------------------------*\
| =========                 |                                                 |
| \\      /  F ield         | OpenFOAM: The Open Source CFD Toolbox           |
|  \\    /   O peration     | Version:  4.1                                   |
|   \\  /    A nd           | Web:      www.OpenFOAM.org                      |
|    \\/     M anipulation  |                                                 |
\*---------------------------------------------------------------------------*/
FoamFile
{
    version     2.0;
    format      ascii;
    class       volScalarField;
    location    "20";
    object      p;
}
// * * * * * * * * * * * * * * * * * * * * * * * * * * * * * * * * * * * * * //

dimensions      [0 2 -2 0 0 0 0];

internalField   nonuniform List<scalar> 
1280
(
0.307757
1.5804
3.33784
2.94728
2.64423
4.16575
3.10927
2.30179
2.11663
2.84686
-0.0446648
-0.030549
0.410058
-3.93013
-3.2462
-3.04512
-9.3129
-7.7404
-8.9621
-16.5069
-15.498
0.783261
25.1901
34.1412
33.7157
35.2529
1.73575
38.1462
41.8306
41.7442
42.0042
42.2484
41.9817
41.4316
40.728
39.7503
38.8315
37.4577
37.0404
34.283
28.8842
41.8542
45.1733
46.6824
55.4777
54.2077
54.6072
54.608
55.0109
54.4306
54.2917
55.5876
52.2222
48.6486
47.0272
56.7591
30.094
22.793
12.9464
6.05242
18.3151
22.9777
23.848
26.6348
28.5872
30.9363
32.987
35.0131
36.7946
38.3943
39.8567
40.8384
40.7749
50.5615
71.3091
68.8591
67.8174
57.7423
33.1985
17.3904
16.7107
24.3261
29.4727
30.0351
33.7658
34.6294
35.582
36.6117
35.3596
34.9897
34.9261
34.0865
29.5192
27.3197
26.595
23.2518
15.5269
11.4803
4.64761
3.54582
-0.0336728
-0.188561
-0.268114
0.0422465
0.237465
0.783615
1.76507
4.0845
6.39502
2.34602
1.14929
-3.00754
-2.21911
-15.205
-8.36007
-7.31978
-2.83077
3.46606
7.86606
-0.0588288
-0.610061
-0.408611
-0.002459
0.603082
1.73327
3.52323
7.24485
11.3701
3.78675
-0.545348
-4.02495
-5.50422
-19.8027
-6.67
-0.632146
9.38604
18.2923
20.7196
0.0490837
-0.335323
-0.0658625
0.365628
1.04177
2.2921
4.40801
7.89551
12.4734
7.08297
0.420955
-6.42894
-13.731
-21.8829
-6.42668
2.26968
15.1783
27.0401
31.4185
0.0426994
-0.055966
0.166222
0.685713
1.43773
2.84683
5.34601
9.27375
13.8997
8.74914
0.305463
-7.70452
-20.9507
-26.3686
-8.49111
3.53343
19.3827
34.3772
40.426
0.0298216
0.13083
0.31444
0.926586
1.76147
3.34479
6.16338
10.637
15.0317
10.4489
0.869662
-8.85557
-27.2679
-30.099
-10.1657
5.35612
24.0198
41.38
48.5313
0.02482
0.336017
0.457183
1.14804
2.01523
3.70582
6.69573
11.4878
15.2556
11.4695
1.43926
-9.41241
-31.2579
-32.0028
-11.4424
7.05322
27.8328
48.6955
56.5865
0.0260758
0.552424
0.564431
1.33018
2.19167
3.94346
6.99668
11.9825
14.8123
12.2009
2.42375
-9.33377
-32.7511
-32.1828
-12.5905
8.32631
30.8844
54.3404
59.6444
0.0178902
0.748474
0.619034
1.45598
2.28375
4.05891
7.07573
12.1081
13.7966
12.5769
3.7472
-8.24556
-31.3637
-30.5883
-13.287
9.14298
31.939
64.2869
66.4667
-0.0274791
0.89159
0.615958
1.52133
2.28919
4.04304
6.92284
11.8432
12.2879
12.7561
5.54277
-5.9906
-27.6767
-27.228
-13.0918
9.07845
30.8919
56.9902
90.9922
-0.134206
0.966919
0.549231
1.52133
2.20951
3.89818
6.55208
11.2387
10.3585
12.7591
7.85875
-2.39392
-22.3941
-23.1249
-12.8701
7.75133
28.441
51.9084
77.9433
-0.322017
0.975901
0.419411
1.45371
2.05237
3.63605
5.9872
10.3599
8.05307
12.5867
10.7364
2.75983
-14.9107
-17.8429
-11.6714
6.53597
23.9578
44.5715
66.9163
-0.597975
0.87945
0.228316
1.31648
1.82674
3.27122
5.25368
9.25877
5.392
12.1574
14.0925
8.69067
-6.15802
-11.1758
-8.80074
4.46329
17.6979
47.7267
91.1494
-0.936006
0.682571
-0.00619066
1.12151
1.55226
2.82964
4.39154
7.99858
2.45293
11.4241
17.9032
14.3078
1.8745
-4.04198
-4.11683
4.83594
15.1913
30.8015
46.0969
-1.30829
0.413849
-0.27162
0.871986
1.23788
2.3331
3.44492
6.61853
-0.649302
10.3295
21.5468
18.1275
7.58031
2.27202
0.220881
2.63568
-1.41686
-12.8855
-1.64884
-1.63633
0.116416
-0.510678
0.614774
0.925891
1.82753
2.48517
5.18684
-3.67153
8.75398
24.0323
19.7868
10.6228
6.39129
3.19719
1.81398
-4.2308
-8.29896
-2.86007
-1.82241
-0.21505
-0.726182
0.325978
0.59818
1.31876
1.56169
3.70115
-6.40768
6.58063
24.43
19.0752
11.3902
8.06937
4.25304
0.014042
-8.43681
-8.27013
-4.7912
-1.71221
-0.387232
-0.761595
0.154785
0.368087
0.89324
0.797392
2.40566
-8.10201
3.9716
21.9558
15.9198
10.1157
7.6764
3.63148
-1.82172
-10.4042
-10.0128
-4.9251
-1.46108
-0.591767
-0.832752
-0.116555
0.0767229
0.47138
0.186973
1.15602
-8.6028
0.944534
17.1687
10.7426
7.22417
5.74784
2.10213
-3.11187
-8.80166
-10.1448
-4.39828
-0.85496
-0.259146
-0.406921
0.0571082
0.110058
0.275535
-0.0539242
0.673936
-6.38639
-2.64759
12.1037
6.81319
4.69095
3.44491
1.00604
-2.77224
-6.13388
-8.78656
-3.01751
-0.553947
-0.650146
-0.613244
-0.432958
-0.277497
-0.101138
-0.263592
-0.364589
-3.28844
-4.16894
4.40598
2.16555
0.669728
1.08532
-0.00892691
-1.75343
-2.62581
-4.58528
-1.02234
44.1568
46.559
49.1669
50.704
50.9054
50.6584
49.7305
49.0752
48.4679
47.9107
47.3923
46.9733
46.671
46.51
46.4857
46.6412
46.9092
47.3948
47.8402
48.5953
-23.5058
-19.9967
-14.1672
-8.63628
-3.9881
0.0232651
3.74524
7.09046
10.1529
12.8992
15.3636
17.58
19.5723
21.3977
23.0625
24.6497
26.0746
27.5425
28.6076
30.0357
-19.1411
-19.6229
-19.3462
-18.6266
-17.671
-16.8063
-15.5587
-14.1793
-12.5502
-10.7561
-8.82666
-6.80589
-4.74621
-2.65808
-0.596558
1.53047
3.63569
6.18381
8.44711
11.7828
-36.4965
-40.7905
-44.2596
-47.9959
-50.8326
-54.0794
-56.7584
-59.2447
-60.9789
-62.0508
-62.3148
-61.8058
-60.5492
-58.6589
-56.3166
-53.6708
-51.142
-48.5031
-46.3074
-42.0856
5.49704
-1.92923
-5.61662
-10.9666
-15.6316
-21.1465
-26.4852
-32.184
-37.5899
-42.822
-47.5517
-51.6906
-55.0232
-57.4084
-58.5881
-58.7658
-58.2394
-57.3065
-57.515
-56.7125
65.2129
60.4085
58.3823
55.0715
52.5575
49.306
46.4333
43.2794
40.3724
37.4589
34.7544
32.1795
29.8102
27.6334
25.8084
24.4331
23.6939
24.2101
23.8062
19.0645
92.7145
93.3516
93.6915
93.7172
93.9921
93.5099
93.0143
91.6303
89.7703
87.0305
83.5593
79.2808
74.3615
69.0938
64.0471
59.8397
56.9106
55.4832
55.4735
52.9611
65.8983
68.3536
69.8372
71.175
73.0801
74.4442
76.4022
78.0167
79.7296
81.1016
82.1075
82.4851
82.0658
80.7709
78.8125
76.6669
75.3558
75.0327
75.5718
75.4328
50.7534
52.834
54.3401
55.0209
56.8152
57.4947
58.9183
59.8585
60.9773
62.0221
63.0936
64.2184
65.4108
66.6738
67.9873
69.3353
70.6373
72.0238
73.0229
74.3543
24.8173
26.9219
28.9823
29.5865
32.001
32.7985
34.7425
36.0083
37.5837
39.0305
40.4894
41.9417
43.3853
44.8579
46.3477
47.9317
49.4895
51.2524
52.5934
54.5023
0.51082
1.50355
3.82443
3.73228
6.34743
6.62116
8.69275
9.68203
11.341
12.7603
14.3494
15.9792
17.6842
19.4916
21.3569
23.3613
25.3195
27.5215
29.2042
31.942
-23.184
-24.5103
-22.6343
-24.1566
-22.3485
-23.5477
-22.4024
-22.914
-22.356
-22.3782
-22.025
-21.6743
-21.0843
-20.233
-19.0883
-17.4953
-15.7051
-13.1286
-11.1703
-7.86667
-19.3744
-23.0808
-22.5044
-25.6193
-25.4482
-28.1832
-28.7045
-30.9111
-32.0106
-33.8043
-35.1124
-36.4657
-37.4762
-38.213
-38.6052
-38.7267
-38.6081
-38.0474
-37.4841
-35.1244
12.5935
8.62794
9.05833
5.01821
4.86598
1.22637
0.0472168
-3.08796
-5.14605
-8.02275
-10.5059
-13.154
-15.5318
-17.7201
-19.5525
-21.2708
-22.7771
-23.4746
-24.5953
-24.9895
37.7299
36.215
38.5009
36.1994
38.8691
37.3242
39.0131
38.4673
39.1504
38.9512
38.9524
38.5761
38.0623
37.2554
36.1114
34.4274
32.2773
30.0659
27.9358
24.9613
22.8573
21.865
24.8385
22.5372
26.0297
25.0963
27.5203
28.2419
30.174
31.7915
33.7856
35.7965
37.8921
39.9311
41.7686
43.0907
43.978
44.1225
44.2127
44.8654
25.6275
22.4998
25.3407
19.7069
20.9088
17.2822
16.5187
14.423
13.1888
11.8707
10.8936
10.1138
9.57946
9.28988
9.2251
9.58989
10.4992
12.3609
14.7378
17.2426
17.8666
11.0283
19.2346
12.3284
14.3346
11.0059
9.72522
7.19803
4.94956
2.43629
-0.0574225
-2.59051
-5.08958
-7.51372
-9.73748
-11.3992
-12.2334
-11.3732
-10.2737
-8.39068
37.1314
14.232
22.2073
10.8632
7.90525
1.03021
-4.12135
-9.57761
-14.3011
-18.5043
-21.9423
-24.5658
-26.2831
-27.0086
-26.6312
-25.2121
-22.6994
-19.2278
-16.5217
-14.359
729.523
646.508
597.293
540.895
491.778
444.381
400.332
358.75
319.652
282.766
247.935
214.967
183.65
153.923
125.863
98.6902
72.8669
52.9417
29.5741
-7.66135
747.016
664.001
614.786
558.388
509.271
461.873
417.824
376.241
337.144
300.257
265.425
232.457
201.139
171.412
143.352
116.18
90.3576
70.4333
47.0651
9.82809
54.6225
31.7222
39.6971
28.3524
25.394
18.5184
13.3663
7.90943
3.18547
-1.01824
-4.45663
-7.0804
-8.79785
-9.5235
-9.14621
-7.72683
-5.21361
-1.74317
0.960763
3.12269
35.3432
28.5034
36.7088
29.8014
31.8066
28.4768
27.195
24.6666
22.4168
19.9022
17.407
14.8724
12.3715
9.94532
7.71959
6.05653
5.22282
6.08335
7.182
9.06362
43.0871
39.9587
42.7988
37.1638
38.366
34.7375
33.9731
31.8762
30.6407
29.3215
28.343
27.5619
27.0262
26.7354
26.6706
27.0383
27.9532
29.8204
32.1995
34.7056
40.331
39.3429
42.3181
40.0188
43.5152
42.583
45.0104
45.7347
47.6696
49.2908
51.2886
53.3037
55.4035
57.4465
59.2874
60.6097
61.494
61.639
61.732
62.3944
55.2867
53.7791
56.0682
53.7716
56.4467
54.906
56.6005
56.059
56.747
56.5519
56.5571
56.1842
55.6732
54.8686
53.7265
52.0449
49.8996
47.6953
45.5726
42.6052
30.1961
26.2341
26.6668
22.6292
22.4808
18.8447
17.6701
14.5398
12.4875
9.61785
7.14273
4.50387
2.1363
-0.0412398
-1.86341
-3.57234
-5.0728
-5.7774
-6.90573
-7.31667
-1.81415
-5.52457
-4.9511
-8.06949
-7.90246
-10.6414
-11.1681
-13.3798
-14.487
-16.2895
-17.6083
-18.9738
-19.998
-20.7499
-21.1579
-21.2971
-21.1953
-20.6449
-20.0897
-17.7351
-5.73366
-7.06888
-5.1983
-6.72722
-4.92642
-6.13326
-4.99606
-5.51679
-4.96764
-4.99967
-4.65537
-4.3131
-3.72998
-2.88382
-1.74148
-0.14753
1.64642
4.21962
6.17299
9.47318
17.9259
18.914
21.2339
21.1392
23.7529
24.0245
26.0951
27.0829
28.7414
30.1602
31.7496
33.3801
35.0864
36.8956
38.7632
40.7702
42.7311
44.9352
46.6195
49.3603
42.2488
44.3514
46.4115
47.0148
49.4291
50.2258
52.1695
53.4346
55.0097
56.456
57.9147
59.3669
60.8107
62.2834
63.7732
65.3568
66.9135
68.675
70.0144
71.9224
68.1734
70.2531
71.7596
72.44
74.2351
74.9151
76.3399
77.2819
78.4037
79.4527
80.5288
81.6584
82.8532
84.1172
85.4284
86.7728
88.0707
89.4552
90.4532
91.7855
83.3779
85.8379
87.3259
88.667
90.5765
91.9428
93.9021
95.5172
97.2288
98.5955
99.5926
99.9557
99.5219
98.2142
96.2496
94.1134
92.8194
92.5155
93.0619
92.9268
110.16
110.806
111.143
111.169
111.441
110.954
110.452
109.062
107.196
104.452
100.984
96.715
91.8162
86.5756
81.5617
77.3851
74.4775
73.056
73.0473
70.5477
82.898
78.1162
76.0992
72.8023
70.2972
67.0558
64.191
61.044
58.1417
55.2305
52.5246
49.9436
47.5616
45.3654
43.5178
42.1212
41.3649
41.8731
41.4771
36.7323
23.4814
16.05
12.3435
6.97573
2.29209
-3.24433
-8.60775
-14.3325
-19.7651
-25.0241
-29.7781
-33.9393
-37.2915
-39.6941
-40.8871
-41.0721
-40.5521
-39.6301
-39.8492
-39.0611
-18.4723
-22.7412
-26.2627
-30.0519
-32.93
-36.2204
-38.9424
-41.4691
-43.239
-44.3408
-44.6266
-44.1301
-42.8752
-40.9753
-38.6127
-35.9348
-33.3686
-30.6941
-28.4722
-24.2284
0.89571
0.380647
0.417275
0.965463
1.79425
2.54859
3.69478
4.97322
6.4958
8.18284
10.0076
11.9302
13.9018
15.9149
17.9171
20.0007
22.0803
24.6122
26.8811
30.2072
-5.30473
-1.78929
4.03692
9.56972
14.2275
18.2369
21.9448
25.2454
28.2356
30.8909
33.2668
35.4021
37.325
39.0981
40.7306
42.3048
43.7377
45.2226
46.3237
47.7343
65.6904
68.3989
71.4416
73.5171
74.2523
74.5637
74.2355
73.3398
72.1024
70.9976
69.936
68.9542
68.0986
67.3968
66.854
66.4894
66.2882
66.2345
66.3063
66.3844
)
;

boundaryField
{
    outletWall
    {
        type            fixedValue;
        value           uniform 0;
    }
    fineWalls
    {
        type            zeroGradient;
    }
    fineFrontAndBack
    {
        type            zeroGradient;
    }
    fineplugLeft
    {
        type            cyclicAMI;
        value           nonuniform List<scalar> 
20
(
45.7328
45.6802
45.4074
45.2937
45.263
45.3341
45.4943
45.7332
46.0284
46.3147
46.6774
47.1405
46.8894
44.2731
47.5773
47.4674
47.3914
44.3716
37.4039
32.2258
)
;
    }
    fineplugRight
    {
        type            cyclicAMI;
        value           nonuniform List<scalar> 
20
(
56.7705
57.6406
57.7572
58.3575
58.9089
59.6705
60.5148
61.4815
62.5223
63.6276
64.7695
65.8496
66.8268
71.5436
73.9128
73.1737
72.3771
68.7017
61.3588
56.0304
)
;
    }
    inletOutletLeft
    {
        type            cyclicAMI;
        value           nonuniform List<scalar> 
20
(
45.7328
45.6802
45.4074
45.2937
45.263
45.3341
45.4943
45.7332
46.0284
46.3147
46.6774
47.1405
46.8894
44.2731
47.5773
47.4674
47.3914
44.3716
37.4039
32.2258
)
;
    }
    inletLeft
    {
        type            zeroGradient;
    }
    inletWallsLeft
    {
        type            zeroGradient;
    }
    inletFacesLeft
    {
        type            zeroGradient;
    }
    inletOutletRight
    {
        type            cyclicAMI;
        value           nonuniform List<scalar> 
20
(
56.7705
57.6406
57.7572
58.3575
58.9089
59.6705
60.5148
61.4815
62.5223
63.6276
64.7695
65.8496
66.8268
71.5436
73.9128
73.1737
72.3771
68.7017
61.3588
56.0304
)
;
    }
    inletRight
    {
        type            zeroGradient;
    }
    inletWallsRight
    {
        type            zeroGradient;
    }
    inletFacesRight
    {
        type            zeroGradient;
    }
}


// ************************************************************************* //
