/*--------------------------------*- C++ -*----------------------------------*\
| =========                 |                                                 |
| \\      /  F ield         | OpenFOAM: The Open Source CFD Toolbox           |
|  \\    /   O peration     | Version:  4.1                                   |
|   \\  /    A nd           | Web:      www.OpenFOAM.org                      |
|    \\/     M anipulation  |                                                 |
\*---------------------------------------------------------------------------*/
FoamFile
{
    version     2.0;
    format      ascii;
    class       surfaceScalarField;
    location    "20";
    object      phi;
}
// * * * * * * * * * * * * * * * * * * * * * * * * * * * * * * * * * * * * * //

dimensions      [0 3 -1 0 0 0 0];

internalField   nonuniform List<scalar> 
2360
(
-1846.8
1478.65
-3325.45
1478.65
1478.65
4294.7
-2816.05
4294.7
4294.7
4294.7
7161.2
-2866.5
7161.2
7161.2
9725.44
-2564.24
9725.44
9725.44
12124
-2398.52
12124
12124
14780.9
-2656.89
14780.8
14780.8
15265.6
16787.2
18642.5
20383.2
21925.2
23303.8
14066.4
10540.5
15262.7
16376.5
17411.1
18367.7
19247.5
20052.8
20786.3
21451.1
22048.6
22581
23050
23458.3
23740.4
7556.53
16183.8
7556.53
7556.53
7556.53
518.08
7038.45
518.083
518.087
518.088
-528.341
1046.43
-528.338
-528.337
-7207.66
6679.33
-7207.66
-7207.66
-7207.66
-19132.3
11924.6
-19132.3
-19132.3
-19132.3
-30579.3
11447
-30222.5
-29770.4
-29267.6
-28711.1
-28096
-27420.3
-26681.8
-25877.3
-25003.7
-24058.3
-23039.5
-21946
-20775.4
-22271.9
2767.52
-20902.1
-19367.7
-17634.1
-15791.6
-14298.6
-13846.8
-13846.8
-13846.8
-8468.45
-5378.37
-8468.45
-8468.45
-3741.39
-4727.06
-3741.39
-3741.39
850.592
-4591.98
850.593
850.594
5342.48
-4491.89
5342.48
5342.48
5342.48
10247.9
-4905.4
10247.9
10247.9
15072.3
-4824.38
-1340.76
851.647
-1808.15
5713.83
-1882.95
12138.6
-1981.88
15222.4
-2010.71
18656
-2017.46
20741.8
-2054.98
21929.1
-1929.66
20584.8
-1846.85
2199.96
-3181.64
-17801.3
-4406.93
-20391.7
-3636.89
-20971.9
-1203.5
-3083.86
1.04978
21174.7
974.73
28949.5
2268.26
32257.8
3652.92
31781.7
4755.93
25135.8
10802.9
-1233.13
1336.52
-1841.57
6322.28
-1919.26
12216.3
-2026.57
15329.8
-2070.93
18700.4
-2110.66
20781.5
-2203.7
22022.2
-1995.36
20376.4
-1625.94
1830.54
-2705.18
-16722
-3656.99
-19439.9
-3602.49
-21026.4
-1447.21
-5239.14
-177.244
19904.7
650.621
28121.6
1946.73
30961.7
3355.72
30372.8
4482.79
24008.7
10380.3
-1368.46
1761.45
-1881.56
6835.38
-1965.5
12300.2
-2087.86
15452.1
-2157.11
18769.6
-2239.05
20863.5
-2395.09
22178.2
-2206.21
20187.5
-1898.18
1522.51
-2674.6
-15945.6
-3324.82
-18789.6
-3653.74
-20697.4
-2061.34
-6831.55
-617.752
18461.1
146.693
27357.2
1418.57
29689.8
2861.64
28929.7
3920.69
22949.7
9809.11
-1492.51
2149.67
-1903.11
7245.98
-2003.77
12400.9
-2150.97
15599.3
-2252.1
18870.8
-2382.36
20993.7
-2613.07
22408.9
-2507.27
20081.7
-2252.55
1267.79
-2855.78
-15342.4
-3289.74
-18355.7
-3797.84
-20189.3
-2956.63
-7672.75
-1390.97
16895.5
-445.101
26411.3
662.899
28581.8
2161.04
27431.5
3294.38
21816.4
8511.51
-1536.45
2506.72
-1890.24
7599.77
-2027.93
12538.6
-2209.99
15781.4
-2348.43
19009.2
-2533.57
21178.9
-2840.91
22716.3
-2866
20106.8
-2788.33
1190.12
-3253.22
-14877.5
-3496.82
-18112.1
-4181.99
-19504.2
-4098.81
-7755.93
-2428.21
15224.9
-1257.53
25240.6
-304.726
27629
1267.75
25859.1
2621.79
20462.3
6406.23
-1528.54
2826.72
-1843.78
7915
-2038.77
12733.6
-2262.07
16004.7
-2441.4
19188.5
-2683.56
21421
-3064.84
23097.5
-3260.6
20302.6
-3439.43
1368.96
-3844.14
-14472.8
-4057.1
-17899.1
-4950.45
-18610.8
-5411.44
-7294.94
-3788.08
13601.5
-2379.07
23831.6
-1390.68
26640.6
101.984
24366.4
1918.21
18646.1
2946.07
-1472.18
3117.34
-1770.66
8213.48
-2038.63
13001.6
-2307.86
16273.9
-2529.35
19410
-2826.15
21717.8
-3278.27
23549.6
-3671.03
20695.3
-4150.77
1848.7
-4559.12
-14064.4
-4915.01
-17543.2
-6107.42
-17418.4
-6903.3
-6499.05
-5419.45
12117.7
-3741.99
22154.2
-2649.72
25548.3
-1388.03
23104.7
1676.43
15581.6
7390.02
-1346.71
3418.65
-1677.32
8544.09
-2031.13
13355.4
-2350.12
16592.9
-2611.6
19671.5
-2956.15
22062.4
-3471.6
24065.1
-4064.36
21288.1
-4849.19
2633.53
-5341.12
-13572.5
-6009
-16875.4
-7571.38
-15856
-8522.24
-5548.2
-7192.48
10787.9
-5403.9
20365.6
-4190.86
24335.3
-3036.19
21950
-4046.12
16591.6
14790.9
-1137.99
3798.22
-1573.48
8979.58
-2022.96
13804.9
-2393.09
16963
-2688.36
19966.8
-3069.12
22443.1
-3634.5
24630.5
-4413.34
22066.9
-5496.63
3716.82
-6139.85
-12929.3
-7224.55
-15790.7
-9185.3
-13895.3
-10111.8
-4621.71
-8793.21
9469.32
-7010.99
18583.4
-5753.75
23078.1
-5730.71
21927
-8839.9
19700.7
17875.6
-868.069
4328.31
-1478.74
9590.26
-2023.45
14349.6
-2441.85
17381.4
-2761.6
20286.5
-3163.04
22844.6
-3759.06
25226.5
-4694.7
23002.6
-6062.26
5084.39
-6900.75
-12090.8
-8439.17
-14252.2
-10846.4
-11488
-11770.5
-3697.61
-10355.2
8054.05
-8652.42
16880.6
-7830.59
22256.2
-8813.42
22909.8
-10142.8
21030.1
14412.1
-611.234
5043.67
-1423.91
10402.9
-2042.1
14967.7
-2500.72
17840
-2834.47
20620.3
-3238.43
23248.5
-3840.84
25828.9
-4891.29
24053
-6511.95
6705.05
-7529.95
-11072.8
-9479.54
-12302.6
-12428.3
-8539.33
-13802.7
-2323.16
-12774.3
7025.6
-11405.5
15511.8
-10960.8
21811.6
-11369
23318
-9297.46
18958.6
6161.11
-477.935
5919.69
-1441.49
11366.5
-2087.1
15613.4
-2572.28
18325.2
-2910.07
20958.1
-3297.99
23636.5
-3879.36
26410.3
-4992.81
25166.5
-6800.4
8512.63
-7890.16
-9983.05
-10095
-10097.8
-13512.5
-5121.83
-15537.3
-298.39
-15434.8
6923.16
-14639.1
14716.1
-13783.7
20956.2
-12381.4
21915.8
-9420.12
15997.2
3779.44
-505.507
6926.22
-1553.33
12414.3
-2167.08
16227.1
-2657.95
18816.1
-2990.52
21290.7
-3346.16
23992.1
-3878.99
26943.1
-4999.36
26286.9
-6894.51
10407.8
-7857.62
-9019.94
-10037.9
-7917.58
-13726
-1433.71
-16175.6
2151.19
-16937.3
7684.86
-16975.5
14754.3
-16716.1
20696.7
-16871.6
22071.3
-17616
16741.7
2347.26
-720.241
8014.42
-1770.92
13465
-2293.62
16749.8
-2760.13
19282.6
-3077.54
21608.1
-3388.56
24303.1
-3847.2
27401.7
-4918.27
27357.9
-6793.35
12282.9
-7394.04
-8419.26
-9058.07
-6253.54
-12693
2201.26
-15374.8
4832.96
-16659.4
8969.46
-17158.4
15253.3
-16877.3
20415.6
-15575.3
20769.3
-12476.5
13642.8
411.269
-1191.44
9041.39
-2094.75
14368.3
-2478.47
17133.5
-2882.19
19686.3
-3171.57
21897.4
-3430.67
24562.2
-3794.52
27765.6
-4754.34
28317.8
-6507.53
14036
-6613.05
-8313.74
-7204.43
-5662.16
-10442.6
5439.43
-13326.4
7716.74
-14865.1
10508.2
-15334
15722.1
-14381.5
19463.1
-10935.1
17322.9
-3665.88
6373.6
-5911.5
-1912.21
9817.22
-2507.14
14963.2
-2728.3
17354.7
-3031.95
19990
-3277.26
22142.7
-3479.7
24764.7
-3732.63
28018.5
-4511.15
29096.3
-6032.14
15557
-5720.02
-8625.85
-5061.8
-6320.38
-7526.16
7903.8
-10431.5
10622
-12013.6
12090.4
-12147.1
15855.7
-10423.7
17739.7
-6130.53
13029.7
-659.333
902.406
-8969.36
-2746.97
10256
-2974.86
15191.1
-3032.63
17412.5
-3207.53
20164.9
-3390.54
22325.8
-3537.13
24911.3
-3680.18
28161.6
-4217.2
29633.3
-5368.98
16708.8
-4835.23
-9159.6
-3241.92
-7913.69
-4619.01
9280.89
-7204.86
13207.9
-8731.24
13616.7
-8597.49
15721.9
-6603.85
15746.1
-2431.89
8857.72
1357.63
-2887.12
-10176
-3577.88
10397.9
-3500.03
15113.3
-3408.55
17321
-3442
20198.3
-3543.19
22426.9
-3628.58
24996.6
-3668.07
28201.1
-3941.26
29906.5
-4570.53
17338.1
-3951.63
-9778.51
-1930.17
-9935.15
-2181.42
9532.14
-4140.57
15167
-5588.62
15064.8
-5367.49
15500.8
-3600.39
13979
43.7758
5213.55
2688.68
-5532.02
-10353.8
-4261.85
10307.8
-3953.53
14804.9
-3734.28
17101.7
-3635.28
20099.3
-3655.02
22446.7
-3698.04
25039.7
-3676.19
28179.2
-3701.75
29932
-3671.25
17307.6
-3098.3
-10351.5
-1189.21
-11844.2
-437.851
8780.78
-1528.31
16257.5
-2957.07
16493.5
-2730.09
15273.8
-1096.57
12345.5
1764.99
2351.99
3358.46
-7125.49
-9811.38
-5320.09
-4813.74
-4439.77
-4158.41
-4026.12
-3979.26
-3902.89
-3678.19
-3097.29
-2399.35
-1196.48
255.109
528.358
-169.762
113.094
1392.2
3116.56
3800.99
-277.476
-207.312
-117.557
-1681.45
148.697
-2121.63
378.082
-1970.04
558.732
-1722.65
710.311
-1530.19
798.286
-1391.08
882.908
-1280.93
948.863
-1179.74
994.632
-1080.3
1018.93
-980.957
1021.3
-882.209
1001.24
-785.183
957.914
-690.22
890.671
-597.501
798.27
-505.165
678.443
-412.551
521.575
-312.122
305.65
-192.345
23.5558
159.159
-366.475
171.827
-1694.12
186.631
-2136.44
221.451
-2004.86
277.75
-1778.95
353.353
-1605.79
442.808
-1480.54
531.046
-1369.17
608.895
-1257.59
670.364
-1141.77
712.319
-1022.91
733.014
-902.906
731.362
-783.532
706.571
-665.432
658.31
-549.241
585.83
-432.687
488.265
-314.985
358.92
-182.777
195.296
-28.7207
218.852
600.438
-966.915
873.659
-1967.34
884.624
-2147.4
861.995
-1982.23
890.417
-1807.38
957.928
-1673.3
1037.59
-1560.21
1109.92
-1441.5
1166.54
-1314.21
1203.74
-1178.97
1220.03
-1039.2
1213.31
-896.189
1180.82
-751.039
1119.29
-603.906
1024.69
-454.648
891.84
-299.833
712.979
-136.125
472.465
57.7348
236.998
206.745
455.85
625.769
-1592.68
861.718
-2203.29
783.557
-2069.24
695.942
-1894.62
688.973
-1800.41
725.256
-1709.59
768.882
-1603.83
796.446
-1469.07
803.462
-1321.23
789.422
-1164.93
754.677
-1004.46
696.717
-838.231
612.827
-667.151
501.775
-492.855
364.011
-316.886
215.341
-151.167
96.2928
-17.082
13.4513
140.571
-73.7586
293.951
382.091
247.541
-1840.23
162.286
-2118.04
-20.2577
-1886.7
-150.755
-1764.12
-242.727
-1708.44
-326.504
-1625.82
-416.763
-1513.58
-517.938
-1367.89
-627.069
-1212.1
-741.751
-1050.25
-861.068
-885.145
-984.051
-715.25
-1107.07
-544.137
-1220.46
-379.467
-1306.63
-230.719
-1341.75
-116.043
-1291.35
-67.4894
-1071.45
-79.3299
-630.015
-147.483
-247.924
-157.487
-1682.74
-321.619
-1953.91
-470.586
-1737.73
-638.165
-1596.54
-831.233
-1515.37
-1037.66
-1419.39
-1245.72
-1305.52
-1448.7
-1164.91
-1645.86
-1014.93
-1838.63
-857.488
-2025.64
-698.13
-2197.11
-543.78
-2332.65
-408.604
-2399.38
-312.733
-2348.94
-281.165
-2134.88
-330.102
-1741.04
-461.329
-1164.07
-656.302
-483.08
-828.471
-731.003
-212.958
-1469.78
-230.939
-1935.93
-257.41
-1711.26
-355.66
-1498.29
-488.248
-1382.78
-635.826
-1271.81
-773.222
-1168.12
-888.092
-1050.04
-973.564
-929.464
-1027.07
-803.981
-1045.82
-679.377
-1027.5
-562.104
-970.105
-466.001
-871.522
-411.316
-728.524
-424.164
-535.224
-523.403
-305.077
-691.476
-97.066
-864.313
1.34259
-926.88
-729.661
-37.207
-1432.57
26.5506
-1999.68
100.016
-1784.72
145.067
-1543.34
177.581
-1415.29
202.681
-1296.91
233.589
-1199.03
280.366
-1096.82
350.752
-999.848
451.214
-904.441
583.952
-812.114
744.43
-722.581
916.564
-638.134
1070.88
-565.629
1163.4
-516.689
1144.63
-504.63
983.908
-530.754
693.243
-573.648
338.035
-571.672
-391.625
58.783
-1491.36
114.196
-2055.1
169.558
-1840.09
229.139
-1602.93
299.048
-1485.2
370.666
-1368.52
444.213
-1272.58
519.103
-1171.71
596.09
-1076.84
675.921
-984.274
758.262
-894.455
842.137
-806.456
923.478
-719.475
991.468
-633.619
1025.66
-550.884
995.813
-474.781
875.515
-410.456
651.222
-349.354
348.667
-269.117
-42.9583
144.278
-1635.64
186.16
-2096.98
217.425
-1871.35
265.56
-1651.06
331.013
-1550.66
393.283
-1430.79
457.843
-1337.14
519.58
-1233.45
580.356
-1137.61
636.115
-1040.03
683.881
-942.22
719.718
-842.293
740.914
-740.67
745.03
-637.736
728.526
-534.379
682.208
-428.462
592.177
-320.425
440.818
-197.993
227.353
-55.65
184.394
201.578
-1837.21
204.69
-2100.09
226.379
-1893.04
275.947
-1700.63
344.229
-1618.94
407.199
-1493.76
477.349
-1407.29
547.589
-1303.69
622.926
-1212.95
695.548
-1112.65
759.937
-1006.61
806.887
-889.243
829.239
-763.022
820.503
-628.999
776.598
-490.473
694.801
-346.665
572.329
-197.952
405.661
-31.3256
202.638
147.374
387.032
186.409
-2023.62
136.662
-2050.34
152.486
-1908.86
192.957
-1741.1
248.177
-1674.16
300.826
-1546.41
365.924
-1472.38
434.712
-1372.47
512.916
-1291.15
588.989
-1188.73
657.326
-1074.94
707.527
-939.443
732.309
-787.803
721.463
-618.153
669.535
-438.543
577.02
-254.149
405.254
-26.1851
252.356
121.574
123.387
276.345
510.419
71.2629
-2094.88
-17.7651
-1961.31
-36.5078
-1890.12
-46.9712
-1730.63
-51.4947
-1669.63
-54.1436
-1543.76
-49.9022
-1476.63
-40.9544
-1381.42
-27.0454
-1305.06
-13.6121
-1202.16
-3.5301
-1085.03
-1.24526
-941.726
-13.5786
-775.468
-49.2527
-582.477
-98.9073
-388.886
-128.805
-224.246
-64.0206
-90.9639
-88.8835
146.44
-134.543
322.005
375.877
-43.6952
-2051.19
-124.569
-1880.44
-180.917
-1833.77
-244.771
-1666.78
-306.271
-1608.13
-370.457
-1479.57
-437.697
-1409.39
-506.366
-1312.75
-576.872
-1234.55
-641.998
-1137.03
-697.047
-1029.98
-737.58
-901.192
-768.02
-745.028
-798.062
-552.434
-842.134
-344.814
-903.972
-162.408
-968.94
-25.9951
-873.536
51.0364
-543.735
-7.79545
-167.858
-50.5464
-2000.64
-105.716
-1825.27
-154.959
-1784.53
-222.174
-1599.56
-285.198
-1545.11
-359.842
-1404.93
-441.279
-1327.95
-532.619
-1221.41
-630.395
-1136.78
-724.262
-1043.16
-803.208
-951.03
-855.454
-848.945
-869.596
-730.886
-835.809
-586.22
-763.448
-417.175
-678.089
-247.765
-572.472
-131.612
-414.505
-106.929
-182.123
-240.177
-349.981
17.3519
-2017.99
15.2619
-1823.18
26.9608
-1796.23
33.1252
-1605.73
39.0386
-1551.02
46.0044
-1411.89
46.9112
-1328.85
45.8706
-1220.37
38.5943
-1129.5
30.5439
-1035.11
25.1527
-945.638
30.5314
-854.322
58.2943
-758.647
123.909
-651.833
236.324
-529.587
378.631
-390.071
488.058
-241.038
502.655
-121.525
343.507
-81.028
-6.47384
-1.10546
-2016.89
-14.6195
-1809.66
-12.3707
-1798.48
8.46975
-1626.57
26.3191
-1568.87
65.2887
-1450.86
105.909
-1369.47
160.56
-1275.02
221.253
-1190.19
290.559
-1104.42
366.002
-1021.08
448.686
-937.006
539.251
-849.211
636.563
-749.145
728.248
-621.271
779.638
-441.461
736.626
-198.025
534.957
80.1448
299.857
154.073
293.383
-146.563
-1870.32
-306.626
-1649.6
-431.542
-1673.56
-512.127
-1545.98
-583.31
-1497.69
-620.177
-1414
-641.559
-1348.09
-640.007
-1276.57
-620.945
-1209.25
-583.554
-1141.81
-529.118
-1075.52
-457.657
-1008.47
-369.875
-936.992
-268.55
-850.469
-161.67
-728.15
-61.5407
-541.59
19.1021
-278.665
64.3726
34.8764
11.0841
207.362
304.468
-213.978
-1656.34
-467.931
-1395.65
-735.919
-1405.57
-960.894
-1321.01
-1176.37
-1282.21
-1358.44
-1231.93
-1516.94
-1189.59
-1646.89
-1146.62
-1750.85
-1105.3
-1828.46
-1064.19
-1880.65
-1023.33
-1907.17
-981.948
-1905.67
-938.483
-1867.89
-888.251
-1774.69
-821.349
-1591.77
-724.518
-1283.49
-586.943
-839.511
-409.101
-403.39
-228.758
-98.9227
-681.344
-1101.99
-1532.56
-1878.57
-2185.77
-2442.7
-2657.29
-2828.91
-2959.21
-3048.4
-3096.73
-3103.68
-3067.16
-2980.41
-2826.76
-2576.28
-2188.22
-1622.32
-876.077
-681.344
1656.35
-1101.99
1395.65
-1532.57
1405.58
-1878.58
1321.01
-2185.79
1282.22
-2442.73
1231.94
-2657.33
1189.6
-2828.96
1146.63
-2959.27
1105.31
-3048.49
1064.21
-3096.83
1023.35
-3103.81
981.974
-3067.31
938.508
-2980.57
888.261
-2826.89
821.319
-2576.33
724.437
-2188.18
586.848
-1622.25
409.07
-876.05
228.806
98.9503
-214
1870.35
-467.978
1649.63
-735.991
1673.59
-960.995
1546.02
-1176.5
1497.73
-1358.6
1414.04
-1517.14
1348.14
-1647.12
1276.62
-1751.12
1209.31
-1828.78
1141.87
-1881.01
1075.59
-1907.59
1008.55
-1906.16
937.077
-1868.41
850.517
-1775.18
728.094
-1592.12
541.379
-1283.63
278.354
-839.572
-34.9861
-403.486
-207.278
-304.535
-146.588
2016.94
-306.665
1809.71
-431.6
1798.53
-512.203
1626.62
-583.4
1568.93
-620.285
1450.93
-641.68
1369.54
-640.143
1275.09
-621.089
1190.26
-583.703
1104.49
-529.265
1021.15
-457.799
937.087
-370.019
849.299
-268.719
749.22
-161.91
621.287
-61.9043
441.378
18.6386
197.822
64.0519
-80.3869
10.9007
-154.12
-293.635
-1.04601
2017.99
-14.5196
1823.19
-12.2233
1796.24
8.68953
1605.71
26.6062
1551.01
65.6591
1411.88
106.372
1328.83
161.132
1220.33
221.959
1129.44
291.419
1035.03
367.033
945.541
449.895
854.226
540.614
758.582
637.935
651.9
729.376
529.849
780.313
390.442
736.647
241.491
534.2
122.063
299.226
80.8579
5.59102
17.5183
2000.47
15.5679
1825.14
27.4207
1784.39
33.7652
1599.37
39.8482
1544.93
47.015
1404.71
48.1238
1327.72
47.3092
1221.15
40.2621
1136.49
32.4439
1042.85
27.2698
950.72
32.8451
848.656
60.7679
730.664
126.546
586.128
239.16
417.242
381.5
248.107
490.547
132.448
504.234
108.379
343.951
241.145
349.542
-50.4658
2050.94
-105.556
1880.23
-154.721
1833.55
-221.883
1666.53
-284.842
1607.89
-359.443
1479.32
-440.842
1409.12
-532.163
1312.47
-629.921
1234.25
-723.762
1136.7
-802.661
1029.62
-854.822
900.818
-868.795
744.638
-834.744
552.077
-762.089
344.587
-676.383
162.402
-570.264
26.33
-411.872
-50.0127
-180.366
9.63954
169.176
-43.9101
2094.85
-124.805
1961.13
-181.262
1890.01
-245.276
1730.55
-306.933
1669.55
-371.319
1543.71
-438.792
1476.59
-507.741
1381.42
-578.561
1305.07
-643.999
1202.14
-699.342
1084.96
-740.14
941.619
-770.818
775.316
-801.06
582.32
-845.353
388.882
-907.236
224.285
-970.56
89.654
-874.399
-146.173
-543.481
-321.278
-374.305
70.9126
2023.94
-18.2366
2050.28
-37.1642
1908.94
-47.8436
1741.23
-52.6014
1674.31
-55.4809
1546.59
-51.4811
1472.59
-42.7643
1372.7
-29.098
1291.4
-15.8919
1188.93
-6.00434
1075.08
-3.84952
939.464
-16.2317
787.698
-51.7896
617.877
-100.947
438.038
-130.172
253.506
-67.3093
26.7898
-91.8194
-121.664
-136.298
-276.8
-510.603
186.328
1837.61
136.425
2100.18
152.173
1893.19
192.573
1700.83
247.717
1619.17
300.312
1493.99
365.367
1407.54
434.124
1303.95
512.299
1213.23
588.319
1112.91
656.575
1006.82
706.664
889.377
731.296
763.067
720.233
628.942
667.967
490.306
575.081
346.394
404.268
197.604
251.795
30.8105
122.966
-147.97
-387.637
201.746
1635.87
204.761
2097.17
226.417
1871.54
275.989
1651.26
344.28
1550.87
407.264
1431.01
477.444
1337.36
547.72
1233.67
623.104
1137.84
695.766
1040.25
760.182
942.404
807.137
842.421
829.475
740.728
820.703
637.714
776.731
534.277
694.854
428.272
572.331
320.126
405.613
197.528
202.609
55.0346
-185.028
144.503
1491.36
186.324
2055.34
217.515
1840.35
265.612
1603.16
331.046
1485.44
393.29
1368.76
457.832
1272.82
519.558
1171.94
580.339
1077.06
636.101
984.487
683.847
894.658
719.618
806.649
740.692
719.655
744.616
633.79
727.903
550.991
681.445
474.731
591.425
410.146
440.236
348.719
227.042
268.231
42.0137
59.0971
1432.26
114.508
1999.93
169.796
1785.05
229.352
1543.6
299.288
1415.5
370.925
1297.12
444.472
1199.27
519.296
1097.11
596.154
1000.2
675.782
904.855
757.862
812.576
841.482
723.025
922.512
638.624
990.272
566.028
1024.25
517.01
994.397
504.584
874.373
530.17
650.51
572.582
348.333
570.408
390.346
-36.8539
1469.11
26.8982
1936.18
100.456
1711.5
145.76
1498.3
178.616
1382.64
204.106
1271.63
235.395
1167.98
282.513
1050
353.213
929.501
454.023
804.044
587.193
679.405
748.14
562.078
920.59
466.174
1074.88
411.735
1166.89
424.997
1147.28
524.198
985.682
691.767
694.322
863.942
338.654
926.076
729
-212.447
1681.56
-229.816
1953.54
-255.661
1737.34
-353.235
1595.87
-485.108
1514.51
-631.925
1418.44
-768.524
1304.58
-882.565
1164.03
-967.167
1014.1
-1019.74
856.612
-1037.5
697.164
-1018.28
542.851
-960.177
408.072
-861.408
312.963
-718.609
282.194
-525.97
331.556
-297.348
463.142
-92.011
658.602
3.3581
830.703
732.358
-158.168
1839.72
-321.898
2117.27
-470.383
1885.82
-637.791
1763.27
-830.853
1707.57
-1037.32
1624.91
-1245.39
1512.64
-1448.34
1366.98
-1645.46
1211.22
-1838.19
1049.35
-2025.22
884.183
-2196.65
714.287
-2331.99
543.408
-2398.27
379.237
-2347
230.928
-2132.05
116.599
-1737.76
68.8562
-1161.11
81.9476
-481.371
150.965
250.988
247.393
1592.33
162.211
2202.45
-20.1152
2068.14
-150.544
1893.7
-242.567
1799.59
-326.422
1708.76
-416.728
1602.94
-517.901
1468.15
-627.007
1320.32
-741.711
1164.05
-861.128
1003.6
-984.254
837.408
-1107.33
666.484
-1220.59
492.492
-1306.54
316.88
-1341.55
151.596
-1290.7
18.0112
-1070.26
-138.499
-628.783
-290.509
-377.795
630.695
961.631
868.731
1964.41
791.648
2145.22
704.915
1980.43
698.859
1805.65
736.058
1671.56
780.512
1558.49
808.769
1439.89
816.369
1312.72
802.805
1177.61
768.404
1038
710.621
895.189
626.754
750.349
515.569
603.675
377.355
455.09
227.606
301.341
105.986
139.624
19.6702
-52.1907
-70.4308
-200.414
-448.226
611.403
350.226
893.212
1682.6
904.633
2133.8
880.317
2004.74
907.475
1778.49
974.575
1604.46
1054.74
1478.32
1128.61
1366.03
1187.18
1254.14
1226.32
1138.47
1244.29
1020.03
1238.84
900.637
1207.11
782.078
1145.76
665.027
1050.68
550.162
916.661
435.362
736.373
319.911
492.957
191.224
249.614
42.9274
-198.612
180.154
170.071
203.036
1659.72
222.111
2114.73
260.047
1966.81
320.857
1717.68
403.147
1522.17
500.521
1380.94
594.595
1271.95
676.332
1172.4
740.412
1074.39
783.901
976.537
804.934
879.603
802.24
784.771
774.801
692.465
722.15
602.813
643.213
514.297
537.26
425.865
396.545
331.938
219.774
219.699
21.1621
-281.755
-115.008
157.243
390.428
573.739
726.095
836.057
937.409
1016.28
1071.84
1102.99
1108.98
1089.29
1043.22
970.353
869.573
738.85
568.001
335.623
)
;

boundaryField
{
    outletWall
    {
        type            calculated;
        value           nonuniform List<scalar> 
60
(
15072.3
-10871.4
-26238.8
-33166.4
-33551.3
-29923.2
-22379.2
650.464
20201.8
21617
19136.1
-2282.78
-20710.1
-21891.6
-20735
-18627.2
-15123.5
-12063.8
-5246.45
-417.612
5607.26
4351.98
3436.02
2308.18
1136.38
164.479
-367.965
-501.023
-398.086
-104.122
337.974
758.426
1045.4
1181.56
1208.55
1179.4
1104.28
943.537
748.25
906.727
1846.8
-9335.84
-7809.92
627.635
11066.4
14991
17191.7
15984.2
7329.19
-13047.1
-11049.4
16726.7
29707.3
28102.9
24992.8
22314.4
19818
16727.8
14298.6
10020.6
)
;
    }
    fineWalls
    {
        type            calculated;
        value           uniform 0;
    }
    fineFrontAndBack
    {
        type            calculated;
        value           nonuniform List<scalar> 
960
(
-2.42444e-12
-3.09104e-12
1.08261e-12
8.73977e-13
-2.80977e-12
-6.50119e-13
-1.08578e-12
-1.55452e-12
-7.07336e-12
-1.18108e-13
8.1671e-14
-5.19e-12
-2.02601e-12
-2.17985e-12
-1.49201e-11
-2.38435e-12
-1.6102e-12
-8.46981e-12
-1.03674e-12
-1.01956e-12
-1.47456e-13
-2.5694e-13
-2.68372e-13
-3.12656e-13
-3.32349e-13
-4.38683e-13
-8.16574e-12
-6.0299e-13
-6.47815e-13
-7.01504e-13
-7.5536e-13
-8.08625e-13
-8.39172e-13
-8.28183e-13
-7.68825e-13
-6.62179e-13
-4.91599e-13
-3.71323e-13
-2.33433e-13
-5.52023e-13
3.44297e-12
2.00357e-12
1.99623e-12
1.88321e-12
3.43199e-11
7.28777e-12
7.01406e-12
3.12101e-12
1.11247e-10
7.21265e-12
9.70488e-12
1.34069e-11
1.03781e-12
3.0666e-13
-2.11271e-13
-3.68622e-12
-8.04075e-13
-1.05095e-12
-6.80994e-13
8.31268e-12
1.07905e-12
6.9779e-13
8.26407e-13
9.311e-13
1.09835e-12
1.21906e-12
1.31707e-12
1.3851e-12
1.40732e-12
1.41149e-12
1.41337e-12
1.41873e-12
1.42069e-12
2.7785e-11
1.35299e-12
1.27518e-12
1.31587e-12
1.37139e-12
1.47853e-12
1.42041e-12
8.34138e-12
8.49388e-12
5.20459e-11
1.19506e-11
1.20777e-11
7.82376e-11
2.54241e-11
2.88691e-11
-9.78838e-11
-9.53824e-11
-1.84916e-10
-2.15795e-10
4.06414e-11
3.81329e-11
3.08986e-11
1.18707e-10
1.84313e-11
1.58451e-11
5.98354e-11
7.40327e-12
-2.13246e-11
-3.88035e-11
-3.24956e-11
-3.02184e-11
-2.41271e-11
-1.49125e-11
-4.87918e-12
2.68958e-12
3.7291e-12
-1.09755e-11
-1.18443e-11
-3.23464e-12
6.41931e-12
6.91893e-12
4.69118e-12
4.32825e-12
1.11009e-11
1.80032e-11
2.391e-11
-2.37856e-11
-3.85646e-11
-3.23191e-11
-2.99388e-11
-2.36877e-11
-1.44075e-11
-4.41193e-12
2.979e-12
1.86464e-12
-1.36573e-11
-1.23438e-11
-2.81372e-12
7.19586e-12
7.03465e-12
4.69605e-12
4.27195e-12
1.07668e-11
1.77611e-11
1.24292e-11
-2.59465e-11
-3.83749e-11
-3.20879e-11
-2.95745e-11
-2.31213e-11
-1.37581e-11
-3.80589e-12
3.25484e-12
2.12267e-13
-1.2326e-11
-9.79239e-12
-1.73651e-12
7.29304e-12
7.90745e-12
4.63289e-12
4.21657e-12
1.04255e-11
1.76091e-11
1.40585e-11
-2.70562e-11
-3.81537e-11
-3.18565e-11
-2.91769e-11
-2.25076e-11
-1.30568e-11
-3.15932e-12
3.45775e-12
-1.1625e-12
-1.1611e-11
-8.36488e-12
-1.07618e-12
7.50176e-12
9.14793e-12
4.53228e-12
4.21878e-12
1.01883e-11
1.74271e-11
1.41749e-11
-2.71278e-11
-3.77796e-11
-3.16807e-11
-2.87579e-11
-2.18684e-11
-1.23271e-11
-2.50683e-12
3.58924e-12
-2.2716e-12
-1.09843e-11
-7.3864e-12
-9.97727e-14
8.47717e-12
9.79001e-12
4.68024e-12
4.29035e-12
1.01318e-11
1.74461e-11
3.30212e-12
-2.61728e-11
-3.72191e-11
-3.16173e-11
-2.83131e-11
-2.12101e-11
-1.15783e-11
-1.86547e-12
3.67552e-12
-3.09238e-12
-1.02445e-11
-6.61005e-12
1.47015e-12
1.09378e-11
9.98133e-12
5.27056e-12
4.37821e-12
1.02803e-11
1.76616e-11
-5.7267e-12
-2.35946e-11
-3.64176e-11
-3.17155e-11
-2.78368e-11
-2.05323e-11
-1.07984e-11
-1.20132e-12
3.73282e-12
-3.38384e-12
-8.47127e-12
-5.53888e-12
3.53119e-12
1.51618e-11
1.0768e-11
6.43516e-12
5.00135e-12
1.11895e-11
1.79611e-11
1.46863e-11
-1.91406e-11
-3.50827e-11
-3.19873e-11
-2.73287e-11
-1.98268e-11
-1.00727e-11
-8.03371e-13
3.80259e-12
-2.82063e-12
-5.44042e-12
-4.14944e-12
6.00469e-12
2.10721e-11
1.25713e-11
8.24214e-12
6.82226e-12
1.30354e-11
1.7891e-11
1.48961e-11
-1.3567e-11
-3.28411e-11
-3.23554e-11
-2.68222e-11
-1.90982e-11
-9.01758e-12
9.70498e-13
3.85702e-12
-1.42003e-12
-2.11889e-12
-1.91783e-12
1.03654e-11
2.8799e-11
1.38815e-11
7.94225e-12
9.3602e-12
1.43153e-11
1.54383e-11
5.74509e-12
-8.47451e-12
-2.97484e-11
-3.26304e-11
-2.62922e-11
-1.82079e-11
-8.91813e-12
-3.24286e-12
4.20877e-12
1.65535e-13
-6.52924e-14
1.66243e-12
1.75419e-11
3.94085e-11
3.16056e-11
1.99367e-11
1.00261e-11
1.41743e-11
1.28093e-11
7.55482e-12
-5.6191e-12
-2.65122e-11
-3.25791e-11
-2.5779e-11
-1.7358e-11
-8.23537e-12
-1.05697e-12
4.46883e-12
1.10638e-12
1.87177e-14
3.69144e-12
2.25404e-11
4.14221e-11
3.74573e-11
2.52654e-11
1.43652e-11
1.77477e-11
2.43484e-11
6.45993e-11
-5.63835e-12
-2.40505e-11
-3.20356e-11
-2.52501e-11
-1.64681e-11
-6.95063e-12
1.82365e-12
4.65484e-12
1.7632e-12
-6.04137e-13
7.09081e-13
2.14212e-11
4.59245e-11
4.46622e-11
3.52441e-11
2.98811e-11
3.56188e-11
5.30568e-11
8.33714e-11
-7.30139e-12
-2.28426e-11
-3.09488e-11
-2.4578e-11
-1.54654e-11
-5.69963e-12
3.01425e-12
4.87392e-12
2.68947e-12
1.64682e-13
-2.40847e-12
1.39806e-11
3.99591e-11
4.68339e-11
4.38537e-11
4.01392e-11
3.8897e-11
3.567e-11
1.94975e-11
-9.71037e-12
-2.27145e-11
-2.93664e-11
-2.36167e-11
-1.43275e-11
-4.69047e-12
3.17554e-12
5.13249e-12
3.6728e-12
1.17907e-12
-6.09079e-12
-1.86953e-12
1.86217e-11
3.22399e-11
3.55938e-11
3.16338e-11
2.32235e-11
8.61205e-12
-1.23287e-11
-1.25822e-11
-2.3053e-11
-2.74027e-11
-2.22677e-11
-1.30383e-11
-3.67511e-12
3.22633e-12
5.3482e-12
4.37869e-12
2.5076e-12
-6.84083e-12
-1.84913e-11
-7.3251e-12
7.67825e-12
1.59235e-11
1.44255e-11
4.9136e-12
-1.00881e-11
-2.15896e-11
-1.48802e-11
-2.30706e-11
-2.5139e-11
-2.04909e-11
-1.15673e-11
-2.54167e-12
3.5909e-12
5.50456e-12
4.56391e-12
3.14603e-12
-3.58917e-12
-2.53965e-11
-2.73947e-11
-1.6862e-11
-5.62502e-12
-1.93338e-12
-7.82115e-12
-1.8533e-11
-1.77198e-11
-1.49615e-11
-2.19419e-11
-2.2466e-11
-1.82722e-11
-9.91117e-12
-1.38444e-12
4.09271e-12
5.64323e-12
4.42558e-12
2.85957e-12
2.32797e-13
-2.09626e-11
-3.56766e-11
-3.49905e-11
-2.50696e-11
-1.63533e-11
-1.79944e-11
-2.93728e-11
-1.60715e-11
-1.20008e-11
-1.87864e-11
-1.88375e-11
-1.53403e-11
-7.93249e-12
-2.35177e-13
4.55231e-12
5.76116e-12
4.28079e-12
2.34376e-12
2.03556e-12
-1.07692e-11
-3.16647e-11
-4.24098e-11
-3.97454e-11
-3.05663e-11
-2.59111e-11
-2.38428e-11
-1.08218e-11
-7.21577e-12
-1.42101e-11
-1.46964e-11
-1.22509e-11
-6.07327e-12
6.85814e-13
4.92218e-12
5.92183e-12
4.30835e-12
2.13783e-12
2.35075e-12
-2.3825e-12
-2.03347e-11
-3.88892e-11
-4.64756e-11
-4.21739e-11
-3.68154e-11
-1.52841e-11
-6.41671e-12
8.3012e-13
-5.18187e-12
-6.52487e-12
-5.94266e-12
-2.40142e-12
2.17947e-12
5.32511e-12
5.91039e-12
4.17986e-12
2.15729e-12
2.30318e-12
1.49346e-12
-5.62281e-12
-1.91141e-11
-3.0331e-11
-3.23436e-11
-2.98625e-11
-7.37071e-12
-6.14254e-12
2.42444e-12
3.09104e-12
-1.08261e-12
-8.73977e-13
2.80977e-12
6.50119e-13
1.08578e-12
1.55452e-12
7.07336e-12
1.18108e-13
-8.1671e-14
5.19e-12
2.02601e-12
2.17985e-12
1.49201e-11
2.38435e-12
1.6102e-12
8.46981e-12
1.03674e-12
1.01956e-12
1.47456e-13
2.5694e-13
2.68372e-13
3.12656e-13
3.32349e-13
4.38683e-13
8.16574e-12
6.0299e-13
6.47815e-13
7.01504e-13
7.5536e-13
8.08625e-13
8.39172e-13
8.28183e-13
7.68825e-13
6.62179e-13
4.91599e-13
3.71323e-13
2.33433e-13
5.52023e-13
-3.44297e-12
-2.00357e-12
-1.99623e-12
-1.88321e-12
-3.43199e-11
-7.28777e-12
-7.01406e-12
-3.12101e-12
-1.11247e-10
-7.21265e-12
-9.70488e-12
-1.34069e-11
-1.03781e-12
-3.0666e-13
2.11271e-13
3.68622e-12
8.04075e-13
1.05095e-12
6.80994e-13
-8.31268e-12
-1.07905e-12
-6.9779e-13
-8.26407e-13
-9.311e-13
-1.09835e-12
-1.21906e-12
-1.31707e-12
-1.3851e-12
-1.40732e-12
-1.41149e-12
-1.41337e-12
-1.41873e-12
-1.42069e-12
-2.7785e-11
-1.35299e-12
-1.27518e-12
-1.31587e-12
-1.37139e-12
-1.47853e-12
-1.42041e-12
-8.34138e-12
-8.49388e-12
-5.20459e-11
-1.19506e-11
-1.20777e-11
-7.82376e-11
-2.54241e-11
-2.88691e-11
9.78838e-11
9.53824e-11
1.84916e-10
2.15795e-10
-4.06414e-11
-3.81329e-11
-3.08986e-11
-1.18707e-10
-1.84313e-11
-1.58451e-11
-5.98354e-11
-7.40327e-12
2.13246e-11
3.88035e-11
3.24956e-11
3.02184e-11
2.41271e-11
1.49125e-11
4.87918e-12
-2.68958e-12
-3.7291e-12
1.09755e-11
1.18443e-11
3.23464e-12
-6.41931e-12
-6.91893e-12
-4.69118e-12
-4.32825e-12
-1.11009e-11
-1.80032e-11
-2.391e-11
2.37856e-11
3.85646e-11
3.23191e-11
2.99388e-11
2.36877e-11
1.44075e-11
4.41193e-12
-2.979e-12
-1.86464e-12
1.36573e-11
1.23438e-11
2.81372e-12
-7.19586e-12
-7.03465e-12
-4.69605e-12
-4.27195e-12
-1.07668e-11
-1.77611e-11
-1.24292e-11
2.59465e-11
3.83749e-11
3.20879e-11
2.95745e-11
2.31213e-11
1.37581e-11
3.80589e-12
-3.25484e-12
-2.12267e-13
1.2326e-11
9.79239e-12
1.73651e-12
-7.29304e-12
-7.90745e-12
-4.63289e-12
-4.21657e-12
-1.04255e-11
-1.76091e-11
-1.40585e-11
2.70562e-11
3.81537e-11
3.18565e-11
2.91769e-11
2.25076e-11
1.30568e-11
3.15932e-12
-3.45775e-12
1.1625e-12
1.1611e-11
8.36488e-12
1.07618e-12
-7.50176e-12
-9.14793e-12
-4.53228e-12
-4.21878e-12
-1.01883e-11
-1.74271e-11
-1.41749e-11
2.71278e-11
3.77796e-11
3.16807e-11
2.87579e-11
2.18684e-11
1.23271e-11
2.50683e-12
-3.58924e-12
2.2716e-12
1.09843e-11
7.3864e-12
9.97727e-14
-8.47717e-12
-9.79001e-12
-4.68024e-12
-4.29035e-12
-1.01318e-11
-1.74461e-11
-3.30212e-12
2.61728e-11
3.72191e-11
3.16173e-11
2.83131e-11
2.12101e-11
1.15783e-11
1.86547e-12
-3.67552e-12
3.09238e-12
1.02445e-11
6.61005e-12
-1.47015e-12