/*--------------------------------*- C++ -*----------------------------------*\
| =========                 |                                                 |
| \\      /  F ield         | OpenFOAM: The Open Source CFD Toolbox           |
|  \\    /   O peration     | Version:  4.1                                   |
|   \\  /    A nd           | Web:      www.OpenFOAM.org                      |
|    \\/     M anipulation  |                                                 |
\*---------------------------------------------------------------------------*/
FoamFile
{
    version     2.0;
    format      ascii;
    class       volVectorField;
    location    "20";
    object      U;
}
// * * * * * * * * * * * * * * * * * * * * * * * * * * * * * * * * * * * * * //

dimensions      [0 1 -1 0 0 0 0];

internalField   nonuniform List<vector> 
1280
(
(-1.75208e-15 -0.661564 -2.87037)
(-5.25351e-16 0.966362 -2.47117)
(7.82375e-16 0.221131 -1.42628)
(6.316e-16 0.421424 -1.54685)
(-4.77547e-16 1.64242 -1.90959)
(-4.69824e-16 1.13684 -1.26927)
(-7.84664e-16 1.49634 -1.39417)
(-1.10156e-15 1.57253 -1.54242)
(-1.2536e-15 2.54198 -2.20467)
(-9.82067e-17 2.22917 -1.54222)
(5.88712e-17 2.49742 -1.43859)
(-8.81945e-16 3.46492 -2.09319)
(-1.46407e-15 3.00003 -1.58792)
(-1.57063e-15 3.3311 -1.52527)
(-2.5809e-15 4.26664 -2.28833)
(-1.72311e-15 3.70188 -1.81116)
(-1.16365e-15 4.09349 -1.70031)
(-1.43953e-15 5.15424 -2.89088)
(-7.49225e-16 4.40828 -2.12233)
(-7.3681e-16 4.96325 -2.63124)
(-6.04948e-16 4.77955 -1.97155)
(-1.05411e-15 5.06996 4.21186)
(-1.10101e-15 4.77084 8.63394)
(-1.28269e-15 5.03419 10.3987)
(-1.36348e-15 5.27837 10.8409)
(-1.79972e-15 5.75069 10.8916)
(-1.72137e-15 3.818 9.40611)
(-2.47381e-15 7.39141 13.65)
(-2.6577e-15 7.32059 13.5591)
(-2.87797e-15 7.4112 13.2655)
(-3.09891e-15 7.42493 12.8999)
(-3.31744e-15 7.40759 12.5129)
(-3.44276e-15 7.39748 12.1583)
(-3.39768e-15 7.37865 11.8832)
(-3.15415e-15 7.35419 11.7015)
(-2.71663e-15 7.30329 11.5688)
(-2.01682e-15 7.25994 11.4652)
(-1.52338e-15 7.14589 11.3458)
(-9.57674e-16 7.12345 11.4985)
(-2.26471e-15 6.83997 11.5137)
(5.99298e-16 7.48601 12.5635)
(1.60929e-15 3.63252 8.52695)
(1.60339e-15 2.71207 8.49078)
(1.70801e-15 1.67245 8.66434)
(7.53701e-15 0.609418 6.9324)
(5.85363e-15 0.976049 3.22425)
(5.63378e-15 0.175223 2.76251)
(2.50683e-15 -0.5674 3.23058)
(2.90124e-14 0.55827 -2.25188)
(1.09618e-14 -0.105007 1.54213)
(6.76847e-15 -0.418612 1.09016)
(2.33366e-15 -0.420782 3.51955)
(8.33583e-16 -1.67862 5.57494)
(2.46314e-16 -2.36948 5.85936)
(-1.69696e-16 -3.04539 6.45433)
(-6.4164e-16 -4.35462 10.7028)
(-5.69442e-16 -5.31132 10.1498)
(-8.44133e-16 -6.70912 10.5083)
(-5.46983e-16 -7.82538 10.4662)
(1.5004e-15 -11.4363 13.8889)
(4.42688e-15 -9.05824 11.686)
(2.86273e-15 -9.40053 11.517)
(3.39039e-15 -9.37051 11.284)
(3.8199e-15 -9.50208 11.2945)
(4.50605e-15 -9.52085 11.2888)
(5.00128e-15 -9.56609 11.2847)
(5.40337e-15 -9.56759 11.3025)
(5.68248e-15 -9.56398 11.384)
(5.77362e-15 -9.54198 11.5266)
(5.79072e-15 -9.50878 11.6992)
(5.79843e-15 -9.45017 11.8615)
(5.82044e-15 -9.37012 11.9675)
(5.82848e-15 -9.27529 11.9282)
(5.85718e-15 -4.98057 6.57123)
(5.55074e-15 -5.36812 10.9858)
(5.23153e-15 -4.94997 10.7758)
(5.39844e-15 -4.70409 10.2272)
(5.62622e-15 -4.48608 8.19202)
(6.06578e-15 -4.81527 3.33097)
(5.82734e-15 -4.54773 -3.28325)
(6.0281e-15 -4.68366 -4.04611)
(6.1383e-15 -3.91188 -3.74173)
(8.8457e-15 -4.03338 -5.19108)
(8.63637e-15 -2.97251 -3.07582)
(8.72827e-15 -2.35908 -3.52604)
(1.39731e-14 -2.25933 -4.49979)
(1.87452e-14 -1.46347 -2.86854)
(2.12348e-14 -0.936404 -3.20575)
(-1.53691e-14 -0.828739 -4.20912)
(-7.10533e-14 0.0058539 -2.9381)
(-1.35757e-13 0.598124 -2.56973)
(-3.44351e-14 0.40091 -3.95979)
(2.96506e-14 1.34087 -3.12774)
(2.75576e-14 1.86628 -3.15476)
(2.23296e-14 2.23674 -2.86675)
(2.01755e-14 2.93297 -4.10456)
(1.33198e-14 3.15051 -3.04765)
(1.14869e-14 3.928 -2.72258)
(1.01208e-14 3.64653 -3.61709)
(5.35015e-15 4.96113 -3.89756)
(-2.3694e-15 -0.144523 0.737731)
(-4.3115e-15 -1.748 1.51768)
(-3.61062e-15 -4.01687 1.49622)
(-3.3576e-15 -5.04225 1.63992)
(-2.68079e-15 -6.20989 1.66468)
(-1.65694e-15 -6.91584 1.68667)
(-5.42131e-16 -7.30815 1.67828)
(2.98843e-16 -6.93822 1.74261)
(4.14344e-16 -0.944337 1.41294)
(-1.2195e-15 6.33409 1.74078)
(-1.31603e-15 7.16124 3.53269)
(-3.59405e-16 6.79886 3.852)
(7.13257e-16 0.216621 1.94407)
(7.68771e-16 -7.29905 0.322019)
(5.21242e-16 -9.88685 -0.386757)
(4.80916e-16 -11.0918 -1.21894)
(1.23343e-15 -10.98 -2.56456)
(2.00035e-15 -8.70591 -3.53022)
(2.65667e-15 -3.65593 -4.42657)
(-2.64284e-15 -0.42024 0.580324)
(-4.28496e-15 -2.03321 1.53037)
(-3.59101e-15 -4.07009 1.52633)
(-3.32653e-15 -5.09738 1.67299)
(-2.63197e-15 -6.22544 1.70594)
(-1.60083e-15 -6.91248 1.74615)
(-4.90214e-16 -7.30903 1.7795)
(3.31e-16 -6.78328 1.88123)
(2.07182e-16 -0.472557 1.25454)
(-1.51748e-15 5.61195 1.66872)
(-1.37154e-15 6.51339 2.82419)
(-3.12636e-16 7.10437 3.27965)
(7.9954e-16 1.60331 2.52935)
(7.81628e-16 -6.97066 0.182514)
(5.21784e-16 -9.52906 -0.0633867)
(4.74661e-16 -10.5475 -0.972998)
(1.19631e-15 -10.3472 -2.29116)
(1.97345e-15 -8.15999 -3.32199)
(1.38102e-15 -3.55937 -4.11622)
(-2.88295e-15 -0.50441 0.754599)
(-4.26388e-15 -2.21046 1.56773)
(-3.56532e-15 -4.08658 1.55833)
(-3.28606e-15 -5.13031 1.71872)
(-2.56903e-15 -6.24305 1.7623)
(-1.52868e-15 -6.93667 1.83421)
(-4.22877e-16 -7.36047 1.90176)
(3.61649e-16 -6.75766 2.08457)
(2.35852e-17 -0.554183 1.42762)
(-1.36955e-15 5.48401 1.89415)
(-1.08804e-15 6.40107 2.5705)
(-1.92945e-16 6.9481 2.97613)
(8.10337e-16 2.02373 3.06395)
(8.78605e-16 -6.37167 0.524591)
(5.14765e-16 -9.2324 0.34077)
(4.68507e-16 -10.0773 -0.534617)
(1.15839e-15 -9.86205 -1.85143)
(1.95656e-15 -7.80006 -2.94352)
(1.56206e-15 -3.35738 -3.5656)
(-3.00625e-15 -0.649577 0.909707)
(-4.2393e-15 -2.34874 1.59427)
(-3.53962e-15 -4.1126 1.57417)
(-3.24188e-15 -5.17148 1.76535)
(-2.50084e-15 -6.27035 1.82141)
(-1.45075e-15 -6.97278 1.93413)
(-3.51036e-16 -7.42676 2.03985)
(3.84194e-16 -6.71027 2.3073)
(-1.29167e-16 -0.481908 1.71572)
(-1.29011e-15 5.17726 2.1786)
(-9.29431e-16 6.15125 2.60438)
(-1.19576e-16 6.84119 2.85859)
(8.33529e-16 2.52128 3.52033)
(1.01644e-15 -5.88773 1.49051)
(5.03586e-16 -8.98241 0.658852)
(4.68753e-16 -9.69708 0.131363)
(1.13203e-15 -9.40826 -1.2573)
(1.93634e-15 -7.49081 -2.37918)
(1.57499e-15 -3.16502 -3.1647)
(-3.0142e-15 -0.778887 0.983384)
(-4.19773e-15 -2.47775 1.57977)
(-3.52008e-15 -4.15284 1.57181)
(-3.19532e-15 -5.22696 1.80675)
(-2.42982e-15 -6.31006 1.87897)
(-1.36968e-15 -7.0239 2.03734)
(-2.78536e-16 -7.51414 2.18898)
(3.98804e-16 -6.68371 2.53266)
(-2.524e-16 -0.375936 2.11781)
(-1.22048e-15 5.04274 2.63454)
(-8.20711e-16 6.07916 2.81881)
(-1.10859e-17 6.62765 2.97613)
(9.41908e-16 2.61982 4.11746)
(1.08778e-15 -5.35419 2.74426)
(5.20027e-16 -8.63071 1.13209)
(4.76706e-16 -9.36708 1.00589)
(1.12575e-15 -8.89583 -0.519453)
(1.93845e-15 -7.04861 -1.63589)
(3.66903e-16 -2.49058 -2.90451)
(-2.90809e-15 -0.892684 1.01479)
(-4.13546e-15 -2.58937 1.52419)
(-3.51303e-15 -4.20692 1.55479)
(-3.1459e-15 -5.29431 1.84035)
(-2.35667e-15 -6.36288 1.93285)
(-1.28648e-15 -7.09517 2.13828)
(-2.07275e-16 -7.62931 2.3383)
(4.08391e-16 -6.71869 2.75124)
(-3.43597e-16 -0.396253 2.59852)
(-1.13827e-15 4.88576 3.19575)
(-7.3445e-16 6.00288 3.24609)
(1.6335e-16 6.37731 3.47477)
(1.21531e-15 2.55445 4.94998)
(1.10904e-15 -4.78841 4.05886)
(5.85618e-16 -8.2039 2.09363)
(4.86468e-16 -9.05708 1.90185)
(1.14226e-15 -8.34595 0.403621)
(1.9624e-15 -6.62359 -0.644426)
(-6.36299e-16 -1.9489 -2.98422)
(-2.62162e-15 -0.993308 0.998008)
(-4.04641e-15 -2.68873 1.4369)
(-3.52394e-15 -4.28266 1.52578)
(-3.09297e-15 -5.37586 1.86716)
(-2.28136e-15 -6.4297 1.9832)
(-1.19983e-15 -7.18563 2.2341)
(-1.3348e-16 -7.76909 2.48055)
(4.14757e-16 -6.81659 2.95902)
(-3.75982e-16 -0.508632 3.12323)
(-9.41252e-16 4.76412 3.80867)
(-6.15431e-16 5.92927 3.82323)
(3.92354e-16 6.03469 4.32974)
(1.68465e-15 2.31991 6.0469)
(1.19644e-15 -4.26983 5.41802)
(7.15018e-16 -7.68355 3.47777)
(5.55706e-16 -8.70501 2.77304)
(1.24328e-15 -7.91533 1.63701)
(1.99567e-15 -5.72257 0.55959)
(1.63181e-15 0.302264 -3.45421)
(-2.12674e-15 -1.08692 0.89028)
(-3.89808e-15 -2.78837 1.32528)
(-3.55415e-15 -4.38534 1.48764)
(-3.03653e-15 -5.47364 1.8905)
(-2.20298e-15 -6.51054 2.03121)
(-1.11919e-15 -7.29326 2.3225)
(-8.92635e-17 -7.9311 2.60924)
(4.2251e-16 -6.98071 3.14739)
(-3.13404e-16 -0.722505 3.63516)
(-6.04491e-16 4.61528 4.41831)
(-4.61049e-16 5.7665 4.51208)
(6.67188e-16 5.57707 5.47154)
(2.34134e-15 2.00817 7.34303)
(1.39681e-15 -3.80192 6.80628)
(9.15793e-16 -7.08123 5.07718)
(7.58028e-16 -8.33248 3.92111)
(1.44838e-15 -7.48931 3.10246)
(1.98788e-15 -4.99279 1.73507)
(1.65513e-15 -5.08926 4.78193)
(-1.50745e-15 -1.19411 0.658268)
(-3.64901e-15 -2.90862 1.19811)
(-3.59505e-15 -4.51859 1.44709)
(-2.98024e-15 -5.58857 1.9151)
(-2.12202e-15 -6.60402 2.07916)
(-1.00195e-15 -7.41527 2.40165)
(1.07833e-16 -8.1126 2.71879)
(4.28557e-16 -7.21116 3.30517)
(-1.57781e-16 -1.03646 4.09739)
(-2.35432e-16 4.43142 4.99928)
(-2.13092e-16 5.48091 5.25545)
(1.15171e-15 4.99116 6.76273)
(3.19989e-15 1.68351 8.72783)
(1.54239e-15 -3.4011 8.06571)
(8.82472e-16 -6.50229 6.51886)
(1.04002e-15 -7.89567 5.14003)
(1.59059e-15 -7.13828 4.46593)
(1.71537e-15 -5.79021 5.10506)
(6.38344e-16 -5.48242 9.28249)
(-9.41613e-16 -1.3403 0.317033)
(-3.30538e-15 -3.0779 1.07678)
(-3.6256e-15 -4.68491 1.41501)
(-2.92135e-15 -5.72039 1.94578)
(-2.0231e-15 -6.70733 2.13063)
(-9.90903e-16 -7.54706 2.47133)
(-4.62913e-16 -8.30802 2.8061)
(4.67641e-16 -7.50014 3.42194)
(1.83928e-17 -1.44766 4.48131)
(-7.25472e-18 4.18351 5.52974)
(1.84714e-16 5.04139 5.98408)
(1.98125e-15 4.27012 8.06334)
(4.37872e-15 1.41924 10.1809)
(3.51173e-15 -2.89999 9.37811)
(2.29717e-15 -5.8724 7.84045)
(1.11401e-15 -7.47588 6.54294)
(1.57492e-15 -7.48117 6.51648)
(1.42325e-15 -7.38644 8.17321)
(8.39424e-16 -5.97729 8.48908)
(-6.24345e-16 -1.54686 -0.0446721)
(-2.9458e-15 -3.31741 1.00045)
(-3.6199e-15 -4.88177 1.40386)
(-2.86433e-15 -5.86753 1.98602)
(-1.92867e-15 -6.81718 2.18921)
(-9.15042e-16 -7.68291 2.53328)
(-1.71614e-17 -8.50996 2.87046)
(4.96537e-16 -7.83537 3.4905)
(1.22931e-16 -1.94935 4.76701)
(2.07974e-18 3.86831 5.97231)
(4.1016e-16 4.45164 6.57867)
(2.50449e-15 3.37105 9.20318)
(4.60245e-15 1.04651 11.6601)
(4.16193e-15 -2.4589 11.2983)
(2.80727e-15 -5.36634 9.97587)
(1.59613e-15 -7.36921 8.98396)
(1.97196e-15 -7.78699 9.29669)
(2.70538e-15 -6.51254 9.64619)
(7.1777e-15 -2.98832 5.59339)
(-6.26483e-16 -1.81478 -0.284014)
(-2.67228e-15 -3.61859 1.01025)
(-3.55951e-15 -5.09675 1.42544)
(-2.80557e-15 -6.02593 2.03804)
(-1.82979e-15 -6.92968 2.25692)
(-7.72293e-16 -7.81625 2.59071)
(2.02628e-16 -8.70944 2.91317)
(5.17204e-16 -8.20048 3.50839)
(1.95911e-16 -2.52684 4.94093)
(-6.71264e-17 3.50289 6.26551)
(7.87867e-17 3.74118 6.8664)
(2.38013e-15 2.29379 9.9428)
(5.10273e-15 0.47517 12.7134)
(4.96247e-15 -2.23378 13.1498)
(3.91601e-15 -4.96383 12.57)
(3.32012e-15 -7.13934 11.7863)
(3.95765e-15 -7.70861 11.2415)
(5.8952e-15 -6.43763 9.39351)
(9.26349e-15 -3.34568 5.52603)
(-8.11266e-16 -2.13092 -0.363937)
(-2.53807e-15 -3.95888 1.13021)
(-3.43875e-15 -5.3122 1.49187)
(-2.73089e-15 -6.19108 2.10424)
(-1.71838e-15 -7.04247 2.33361)
(-6.33292e-16 -7.94153 2.64735)
(3.34917e-16 -8.89741 2.93791)
(5.41547e-16 -8.57795 3.47912)
(2.9883e-16 -3.15336 5.0005)
(1.8298e-17 3.13973 6.35851)
(-2.67608e-16 2.97129 6.68019)
(1.5534e-15 1.07505 10.0448)
(4.4399e-15 -0.307914 12.9619)
(5.20377e-15 -2.39918 13.9769)
(4.87263e-15 -4.86154 14.2532)
(4.45991e-15 -6.86839 14.0094)
(4.32189e-15 -7.03977 13.8606)
(3.96333e-15 -4.25284 14.24)
(2.16639e-15 2.32357 14.9259)
(-1.07893e-15 -2.4838 -0.246747)
(-2.52383e-15 -4.3166 1.36558)
(-3.26293e-15 -5.5051 1.61778)
(-2.62408e-15 -6.35252 2.18921)
(-1.59195e-15 -7.15093 2.4187)
(-5.21163e-16 -8.05301 2.70666)
(3.52838e-16 -9.06429 2.95041)
(5.70276e-16 -8.94702 3.40981)
(4.08089e-16 -3.78728 4.95078)
(1.31007e-16 2.85859 6.24359)
(-6.76754e-16 2.27478 5.95454)
(-2.07726e-16 -0.152552 9.184)
(2.06907e-15 -1.13803 12.0921)
(3.58221e-15 -2.74367 13.5118)
(3.95486e-15 -4.98063 14.2545)
(3.51487e-15 -6.89481 14.3047)
(2.58039e-15 -7.45506 13.818)
(9.56895e-16 -6.17593 12.2561)
(-1.36985e-15 -2.77614 8.38964)
(-1.39803e-15 -2.85581 0.199652)
(-2.56144e-15 -4.66048 1.70375)
(-3.04475e-15 -5.66149 1.81666)
(-2.47419e-15 -6.50298 2.29911)
(-1.44869e-15 -7.25471 2.51163)
(-4.08345e-16 -8.14919 2.76997)
(3.58482e-16 -9.20328 2.95823)
(5.94244e-16 -9.29238 3.31119)
(4.86521e-16 -4.40243 4.78723)
(2.78622e-16 2.73811 5.941)
(-7.60092e-16 1.8448 4.86337)
(-2.05459e-15 -1.33411 7.27902)
(-8.139e-16 -2.08783 10.2184)
(8.53139e-16 -3.24301 11.9673)
(1.76928e-15 -5.19348 12.8116)
(1.60283e-15 -6.73289 12.7217)
(5.45955e-16 -6.50864 11.2691)
(-1.1209e-15 -3.4803 7.01402)
(-2.39885e-15 1.40039 -1.17357)
(-1.65336e-15 -3.16668 1.00301)
(-2.56341e-15 -4.91487 2.11174)
(-2.79322e-15 -5.75834 2.09144)
(-2.27677e-15 -6.61929 2.44235)
(-1.28526e-15 -7.34222 2.61704)
(-2.82407e-16 -8.22476 2.84043)
(3.98989e-16 -9.30605 2.96979)
(6.11618e-16 -9.58407 3.19558)
(5.07101e-16 -4.947 4.50156)
(3.49559e-16 2.79189 5.44672)
(-3.98796e-16 1.86158 3.78064)
(-2.82183e-15 -2.29925 4.89498)
(-3.04386e-15 -3.06316 7.70315)
(-1.87355e-15 -3.76114 9.65779)
(-6.25002e-16 -5.28668 10.3683)
(-2.1482e-16 -6.23238 9.86242)
(-8.69016e-16 -4.99562 7.56991)
(-2.05923e-15 -0.77221 2.65263)
(-1.96886e-15 2.63204 -1.62854)
(-1.66239e-15 -3.38141 1.96858)
(-2.43799e-15 -5.06347 2.55235)
(-2.49623e-15 -5.81433 2.42491)
(-2.03025e-15 -6.71002 2.61832)
(-1.10124e-15 -7.42127 2.7326)
(-1.53827e-16 -8.28568 2.91376)
(4.54745e-16 -9.37302 2.99184)
(6.27026e-16 -9.81422 3.08834)
(4.91732e-16 -5.4223 4.11049)
(3.1773e-16 2.9468 4.74746)
(2.58664e-17 2.32213 2.96934)
(-2.32918e-15 -2.96486 2.73585)
(-3.96407e-15 -4.01888 4.97479)
(-3.88784e-15 -4.29245 7.01267)
(-2.78551e-15 -5.27503 7.54476)
(-1.81703e-15 -5.58457 6.77736)
(-1.99938e-15 -3.64723 4.31101)
(-3.26365e-15 0.387933 -0.188213)
(-1.78572e-15 3.30423 -2.21744)
(-1.33342e-15 -3.45111 2.89657)
(-2.08737e-15 -5.05437 3.02558)
(-2.09305e-15 -5.78604 2.82063)
(-1.70447e-15 -6.72623 2.85212)
(-8.81388e-16 -7.45801 2.88811)
(-2.61307e-17 -8.31928 3.01305)
(5.05813e-16 -9.39927 3.04321)
(6.40129e-16 -9.93351 3.02453)
(4.75643e-16 -5.69583 3.68971)
(2.60418e-16 3.15407 3.86332)
(2.26174e-16 3.00076 2.39766)
(-1.19658e-15 -3.08492 1.15587)
(-3.5183e-15 -4.74729 2.42971)
(-4.7122e-15 -4.76534 4.45698)
(-4.41616e-15 -5.18536 4.86541)
(-3.39625e-15 -4.89131 4.08872)
(-2.87901e-15 -2.29522 1.96371)
(-2.6492e-15 1.50077 -1.94396)
(-1.20242e-15 3.48782 -2.67601)
(-8.01752e-16 -3.49448 3.64603)
(-1.5789e-15 -5.04059 3.43266)
(-1.63294e-15 -5.77683 3.1649)
(-1.36121e-15 -6.75267 3.05335)
(-6.74808e-16 -7.50119 3.00803)
(7.62015e-17 -8.34876 3.08079)
(5.46909e-16 -9.40466 3.08928)
(6.57981e-16 -10.0143 3.00428)
(4.78706e-16 -5.88579 3.2549)
(2.37536e-16 3.43647 2.88731)
(2.61195e-16 3.61448 1.96453)
(-2.64722e-16 -3.25605 0.339826)
(-2.25941e-15 -5.38244 0.29666)
(-4.32102e-15 -5.26191 2.25027)
(-5.16395e-15 -5.14816 2.67885)
(-4.68599e-15 -4.43384 1.88655)
(-4.0906e-15 -1.14584 -0.0580327)
(-1.69824e-15 2.23591 -2.78202)
(-7.12967e-16 3.4214 -2.92808)
(9.22355e-17 -3.35606 4.68072)
(-5.75764e-16 -4.79182 4.17876)
(-7.24986e-16 -5.59545 3.84413)
(-6.60295e-16 -6.62214 3.5545)
(-2.66825e-16 -7.44815 3.37639)
(2.42163e-16 -8.33636 3.33227)
(5.91679e-16 -9.37465 3.30181)
(6.5671e-16 -9.91753 3.19231)
(4.64429e-16 -5.61951 2.95987)
(2.39699e-16 3.57034 2.23319)
(2.55909e-16 4.37926 1.66875)
(1.6594e-16 -2.51905 0.434417)
(-6.24756e-16 -5.3604 -0.901185)
(-2.12379e-15 -5.72612 0.00271229)
(-3.37011e-15 -5.01363 0.286883)
(-3.59374e-15 -3.74894 -0.459797)
(-3.31806e-15 -0.319611 -1.90384)
(-8.18968e-16 2.51856 -3.21836)
(-6.82504e-16 3.11344 -3.15903)
(-4.88068e-16 4.77121 8.72147)
(-1.21089e-15 15.6853 27.9436)
(-7.62574e-16 19.3413 33.3345)
(-9.22091e-16 18.2968 30.6964)
(-1.11882e-15 16.4198 26.7561)
(-1.88622e-15 14.9507 23.6)
(-2.36997e-15 13.788 21.2261)
(-2.45201e-15 12.9286 19.4289)
(-2.56451e-15 12.1917 17.8886)
(-2.86994e-15 11.4718 16.4526)
(-3.27127e-15 10.7338 15.0541)
(-3.85166e-15 9.96917 13.6816)
(-4.48254e-15 9.17625 12.3423)
(-5.11105e-15 8.36173 11.036)
(-5.86468e-15 7.50984 9.76058)
(-6.82005e-15 6.63338 8.50003)
(-7.69592e-15 5.69239 7.26802)
(-8.94867e-15 4.76927 6.0606)
(-1.02857e-14 3.61062 4.8243)
(-1.60074e-14 1.8869 2.13789)
(1.25663e-16 0.841063 0.174982)
(4.311e-17 14.5206 24.366)
(-1.29928e-17 19.0742 32.3648)
(-1.35323e-16 17.9302 30.297)
(-2.17391e-16 15.8587 26.6039)
(-5.63906e-16 14.3989 23.8067)
(-6.52535e-16 13.4437 21.8767)
(-6.97268e-16 12.6818 20.2293)
(-8.66884e-16 11.9184 18.6202)
(-1.10327e-15 11.107 16.9707)
(-1.27939e-15 10.2407 15.2914)
(-1.62694e-15 9.33409 13.6096)
(-2.08019e-15 8.39537 11.9529)
(-2.54024e-15 7.43983 10.3316)
(-3.22447e-15 6.44958 8.75339)
(-4.19667e-15 5.44257 7.17789)
(-5.07393e-15 4.31378 5.5735)
(-6.3979e-15 3.1286 3.72019)
(-7.93927e-15 1.24107 1.35023)
(-1.97401e-14 -0.250153 -2.28205)
(-1.29298e-17 6.21854 9.74103)
(1.63357e-16 17.589 27.4805)
(1.22218e-16 20.9618 33.1803)
(1.41437e-16 19.7945 31.2162)
(1.24379e-16 17.8641 27.9678)
(2.71922e-16 16.5565 25.4503)
(2.05386e-16 15.5971 23.5429)
(1.50312e-16 14.7415 21.7758)
(1.34216e-16 13.8205 19.9602)
(1.07426e-16 12.811 18.0505)
(8.1449e-17 11.7207 16.0743)
(3.13031e-17 10.5684 14.0636)
(-9.27852e-17 9.36073 12.0461)
(-2.59878e-16 8.10716 10.0319)
(-4.29492e-16 6.78833 8.03255)
(-6.98485e-16 5.41775 6.01414)
(-1.09164e-15 3.88482 3.97754)
(-1.79038e-15 2.31644 1.69876)
(-2.60127e-15 -0.038831 -0.789468)
(-1.21853e-14 -1.58111 -4.866)
(-5.10147e-18 12.1434 20.3974)
(1.1653e-17 21.0842 33.2315)
(2.08668e-17 20.6796 33.0657)
(2.22568e-17 18.8327 29.9698)
(6.31037e-18 17.3814 27.8596)
(6.27215e-16 16.6079 26.27)
(5.77822e-16 15.7477 24.7123)
(5.64403e-16 14.779 22.842)
(5.94235e-16 13.5929 20.7552)
(5.94338e-16 12.3013 18.5174)
(6.61149e-16 10.911 16.206)
(7.19353e-16 9.44637 13.8302)
(6.8649e-16 7.89262 11.3997)
(7.21524e-16 6.25389 8.91698)
(7.65198e-16 4.51563 6.38512)
(1.18974e-15 2.7011 3.77813)
(1.58334e-15 0.700286 1.1442)
(1.55825e-15 -1.12573 -2.01729)
(-6.22815e-17 -3.41559 -4.23278)
(-6.70867e-15 -3.24895 -8.1198)
(2.65054e-18 16.0819 28.3765)
(-1.02074e-17 20.8061 34.441)
(-1.56448e-17 17.486 30.497)
(-1.26392e-17 16.2401 28.2169)
(-1.95261e-17 15.316 27.4292)
(-6.36519e-17 14.6314 26.2333)
(-3.71524e-17 13.3742 24.555)
(-2.00304e-17 11.9532 22.3033)
(-1.01741e-17 10.2922 19.8703)
(6.66596e-19 8.62821 17.3314)
(-3.93694e-18 6.88284 14.7385)
(1.43208e-18 5.08807 12.0311)
(1.24832e-16 3.21249 9.2219)
(5.23419e-16 1.31099 6.34831)
(9.70669e-16 -0.562423 3.43668)
(4.85564e-16 -2.21186 0.841594)
(-1.91629e-15 -3.25588 -0.980213)
(-5.92934e-15 -4.22813 -3.0798)
(-9.29557e-15 -5.06623 -5.16381)
(-6.47275e-15 -2.4607 -3.38473)
(-8.82224e-19 15.5889 28.0692)
(4.7636e-18 17.4903 30.5777)
(6.28195e-18 14.8776 27.3785)
(6.59085e-18 13.9955 25.8629)
(6.54717e-18 12.8863 24.9221)
(-9.77307e-18 11.818 23.5592)
(-2.39224e-17 10.2781 21.7597)
(-3.00252e-17 8.60496 19.4969)
(-3.53844e-17 6.7903 17.1004)
(-5.35073e-17 4.98366 14.6207)
(-1.00946e-16 3.12914 12.0932)
(-1.49006e-16 1.28693 9.53258)
(-5.14294e-17 -0.481863 7.03798)
(2.92057e-16 -1.99539 4.80961)
(3.90416e-16 -3.02177 3.11258)
(-8.66465e-16 -3.33989 2.14487)
(-3.69405e-15 -2.57104 2.42458)
(-6.06796e-15 -0.0957318 4.8235)
(-5.26686e-15 3.5758 8.80094)
(-1.29174e-15 4.44436 9.55545)
(1.20841e-19 13.278 23.6948)
(-1.72165e-18 16.7226 29.5233)
(-2.18753e-18 14.5061 26.0522)
(-2.2824e-18 12.9601 23.2104)
(2.57755e-19 11.6149 21.6468)
(8.9339e-18 10.5466 20.055)
(1.36534e-17 9.17032 18.3524)
(1.73392e-17 7.78123 16.2939)
(2.19917e-17 6.27057 14.0845)
(2.35168e-17 4.79033 11.7329)
(1.52689e-17 3.35034 9.37435)
(4.73059e-18 2.10653 7.20572)
(2.27566e-17 1.2358 5.56117)
(8.12904e-17 0.988153 4.85756)
(1.13468e-16 1.66178 5.60047)
(5.23365e-17 3.44193 8.09632)
(3.35721e-17 6.07021 11.8875)
(3.20568e-16 8.65956 15.5625)
(8.07291e-16 10.0953 16.9875)
(6.77512e-16 7.23579 13.3531)
(-1.02372e-20 12.4261 21.7771)
(5.00932e-19 17.6473 30.2445)
(6.15992e-19 15.4211 26.8136)
(6.73815e-19 13.8168 23.1136)
(-8.38798e-21 12.3872 21.1148)
(-2.73969e-18 11.6295 19.2795)
(-4.0344e-18 10.6537 17.7745)
(-4.69179e-18 9.88957 16.1783)
(-5.54107e-18 9.0776 14.6513)
(-6.5437e-18 8.3679 13.1116)
(-7.30755e-18 7.72089 11.6058)
(-7.78088e-18 7.16468 10.1407)
(-8.04834e-18 6.73627 8.81172)
(-6.84312e-18 6.50623 7.82795)
(-1.79143e-18 6.59612 7.48766)
(5.38226e-18 7.01603 8.0576)
(1.70254e-17 7.70841 9.43075)
(3.77151e-17 8.12323 11.043)
(2.63644e-17 7.80957 11.5286)
(-7.27085e-17 5.44457 9.05447)
(-7.55136e-22 12.6908 22.2236)
(-1.38585e-19 18.5621 31.2389)
(-1.7132e-19 16.1863 28.0578)
(-1.95639e-19 14.7131 24.3379)
(-3.42769e-20 13.3196 22.4071)
(6.71724e-19 12.6804 20.6146)
(1.08323e-18 11.8376 19.1285)
(1.2364e-18 11.1596 17.6042)
(1.33821e-18 10.4698 16.1741)
(1.47026e-18 9.83533 14.8006)
(1.69989e-18 9.2358 13.4787)
(2.02653e-18 8.65537 12.1888)
(2.15e-18 8.08184 10.9075)
(1.42563e-18 7.50374 9.64341)
(-8.58253e-19 6.93262 8.4639)
(-5.08152e-18 6.40754 7.51457)
(-1.1944e-17 5.92436 6.94464)
(-2.36391e-17 5.46114 6.64303)
(-4.11369e-17 4.47125 6.08997)
(-4.23608e-17 2.42784 2.97872)
(6.51821e-22 13.506 23.7103)
(3.65869e-20 19.3672 32.0231)
(4.61846e-20 16.4573 28.5886)
(5.40837e-20 15.2774 25.0099)
(2.11046e-20 13.8425 23.3156)
(-1.48669e-19 13.288 21.5134)
(-2.67299e-19 12.376 20.0431)
(-3.09267e-19 11.6712 18.4593)
(-3.23823e-19 10.9033 16.9674)
(-3.37077e-19 10.1757 15.4914)
(-3.53995e-19 9.4486 14.0505)
(-3.53452e-19 8.71707 12.6359)
(-2.61222e-19 7.97095 11.246)
(3.59429e-20 7.20988 9.875)
(5.85801e-19 6.40608 8.51716)
(1.32358e-18 5.56979 7.13485)
(2.37666e-18 4.5908 5.73747)
(4.90902e-18 3.55963 4.17421)
(1.17734e-17 1.83612 2.28765)
(1.95303e-17 0.171331 -1.42156)
(-1.70488e-22 14.9422 26.6124)
(-9.27499e-21 20.0113 32.4953)
(-1.18689e-20 16.4566 28.9873)
(-1.37865e-20 15.9292 25.7871)
(-7.05028e-21 14.35 24.3905)
(3.15499e-20 13.977 22.5037)
(6.13816e-20 12.9531 21.0902)
(7.13394e-20 12.3382 19.4813)
(7.24467e-20 11.5649 18.022)
(7.25281e-20 10.8617 16.4918)
(6.89747e-20 10.086 14.9191)
(4.91844e-20 9.24322 13.2535)
(-3.13126e-21 8.3065 11.5097)
(-8.91553e-20 7.28767 9.70449)
(-1.6899e-19 6.16548 7.87026)
(-1.70385e-19 4.97665 5.97705)
(-7.93935e-20 3.59062 4.02473)
(2.56619e-20 2.16061 1.77037)
(-1.21425e-18 -0.15227 -0.795672)
(1.50983e-17 -1.34775 -4.49153)
(2.63628e-23 16.4345 29.9917)
(2.24068e-21 20.0746 32.1901)
(2.89689e-21 16.2114 29.3365)
(3.27298e-21 16.4817 26.6235)
(1.60049e-21 14.6093 25.5089)
(-7.18715e-21 14.5077 23.5512)
(-1.43997e-20 13.3101 22.3067)
(-1.66801e-20 12.8851 20.7346)
(-1.59747e-20 12.0766 19.407)
(-1.39796e-20 11.4322 17.8586)
(-9.11023e-21 10.5675 16.1774)
(3.03206e-21 9.59003 14.2437)
(2.49889e-20 8.43216 12.1197)
(4.94537e-20 7.13258 9.82279)
(5.73689e-20 5.66784 7.42546)
(2.67306e-20 4.12415 4.93899)
(-5.75086e-20 2.31665 2.40922)
(-1.85937e-19 0.631497 -0.334954)
(-1.11452e-18 -2.02266 -3.1628)
(4.28583e-18 -2.70876 -6.88929)
(-4.98909e-24 17.1986 32.2462)
(-5.1691e-22 19.2927 30.8811)
(-6.27201e-22 15.7123 29.3876)
(-7.03566e-22 16.4151 26.9387)
(-4.88023e-22 14.2012 26.0024)
(1.02023e-21 14.2697 24.0339)
(1.9975e-21 12.8294 23.0077)
(2.19824e-21 12.5274 21.5114)
(2.51517e-21 11.5319 20.3426)
(3.88818e-21 10.83 18.7465)
(7.99569e-21 9.69452 16.9362)
(1.76759e-20 8.47187 14.7147)
(3.24621e-20 6.96891 12.1966)
(4.38185e-20 5.25527 9.32016)
(5.03866e-20 3.3531 6.29526)
(8.00774e-20 1.4286 3.35276)
(9.89328e-20 -1.09951 0.0686687)
(-8.06002e-20 -1.40347 -2.51027)
(-5.30627e-19 -4.19016 -5.0494)
(-1.07459e-18 -3.89082 -8.61233)
(1.42211e-24 16.8227 32.1032)
(1.19921e-22 18.2669 29.3561)
(1.54888e-22 15.0657 28.6536)
(1.25843e-22 15.6349 26.1922)
(-1.86587e-22 13.3881 25.2528)
(-9.44524e-22 13.2724 23.3466)
(-1.49253e-21 11.8026 22.3073)
(-1.47958e-21 11.3013 20.8748)
(-8.42923e-22 10.2012 19.6961)
(1.30727e-21 9.31376 18.1256)
(8.95499e-21 8.06105 16.3278)
(2.75199e-20 6.74327 14.1287)
(5.16516e-20 5.1317 11.5068)
(5.72405e-20 3.28823 8.38599)
(3.57345e-20 1.43808 5.29713)
(1.38805e-20 -0.140621 2.81117)
(-1.08617e-19 -1.85803 0.126801)
(-5.54656e-19 -3.84835 -3.39759)
(-1.2769e-18 -4.80584 -5.33223)
(-1.43342e-18 -2.35778 -3.09288)
(-6.93433e-25 15.984 30.922)
(-2.06911e-23 17.9567 28.3965)
(-1.80456e-23 14.3276 27.6503)
(-3.25403e-23 15.1513 24.9532)
(-9.92498e-23 12.6595 24.0705)
(-2.4071e-22 12.5853 22.0001)
(-4.71198e-22 10.9854 20.8605)
(-6.81971e-22 10.3634 19.3003)
(-8.17408e-22 9.20821 18.0558)
(-4.15662e-22 8.29531 16.6074)
(3.11491e-21 7.18136 15.0917)
(1.42e-20 6.03971 13.3041)
(3.07265e-20 4.67558 11.0895)
(2.83085e-20 3.05459 8.23836)
(-4.4996e-20 1.2341 4.87474)
(-2.2567e-19 -0.454461 1.66714)
(-4.53279e-19 -1.20989 0.0646086)
(-5.8794e-19 -0.267087 1.20573)
(-5.05657e-19 2.31795 4.7969)
(-1.09886e-19 3.4193 7.23971)
(1.7503e-25 15.6062 30.8391)
(5.15418e-24 18.3109 27.985)
(6.65611e-24 14.1645 27.4755)
(-5.54608e-24 15.5714 24.4939)
(-5.72451e-23 12.8708 23.6965)
(-1.58914e-22 13.0652 21.4552)
(-2.85273e-22 11.4828 20.2197)
(-4.33223e-22 10.9671 18.4908)
(-6.3295e-22 9.92193 17.1145)
(-1.06728e-21 9.18226 15.6603)
(-2.11763e-21 8.33935 14.3137)
(-3.6572e-21 7.56048 12.9273)
(-4.24442e-21 6.73933 11.4659)
(-3.10615e-21 5.88559 9.80822)
(-2.38121e-21 4.98296 7.90676)
(-7.56541e-21 4.00013 5.86333)
(-3.055e-20 3.25774 3.88725)
(-1.30297e-19 2.09213 2.00502)
(-1.84795e-19 2.59929 2.61308)
(-1.11135e-19 2.58584 3.35649)
(1.37401e-26 15.3402 31.1646)
(1.40018e-25 18.5386 28.0196)
(4.67439e-25 14.1473 27.7207)
(-9.22846e-24 15.5967 24.8563)
(-4.17545e-23 13.1569 23.9943)
(-9.74512e-23 13.1834 21.982)
(-1.60902e-22 11.9372 20.697)
(-2.24207e-22 11.399 19.1264)
(-3.08114e-22 10.604 17.7506)
(-4.59438e-22 9.97076 16.349)
(-7.54046e-22 9.31945 14.9971)
(-1.38295e-21 8.69865 13.639)
(-2.50194e-21 8.06315 12.244)
(-3.18626e-21 7.38407 10.7317)
(-1.82031e-22 6.55597 8.97777)
(9.37683e-21 5.47925 6.77945)
(2.12597e-20 3.97528 4.18074)
(5.30324e-20 2.82133 2.37768)
(4.33829e-20 1.05875 0.525877)
(-4.41424e-20 -0.265863 -2.20098)
(-2.75887e-27 14.3485 31.0072)
(3.11131e-25 18.275 27.7446)
(3.2584e-25 13.506 27.6559)
(-5.24999e-24 14.5519 25.2206)
(-2.34267e-23 12.4593 24.2729)
(-5.17972e-23 12.0695 22.6309)
(-7.64257e-23 10.9935 21.3898)
(-9.51392e-23 10.3206 20.0333)
(-1.46268e-22 9.56341 18.7827)
(-3.17395e-22 8.91992 17.5316)
(-6.47296e-22 8.29541 16.3097)
(-8.65359e-22 7.71123 15.0762)
(-4.74833e-23 7.11245 13.7705)
(3.45428e-21 6.3986 12.2132)
(1.11134e-20 5.34483 10.0564)
(2.15028e-20 3.65718 6.77612)
(2.81436e-20 0.866337 2.0535)
(7.40913e-20 -1.83851 -4.15178)
(6.99055e-20 -3.26952 -4.84927)
(-7.35359e-20 -2.65609 -6.45873)
(-7.84908e-26 11.3175 28.7683)
(-2.7183e-25 17.0688 25.1484)
(4.02571e-25 12.0589 25.5448)
(2.61375e-24 12.6922 23.8475)
(5.86564e-24 10.9535 23.1126)
(1.14108e-23 10.2807 22.0353)
(2.28213e-23 9.28195 21.1284)
(3.46912e-23 8.50017 20.1846)
(1.02547e-23 7.72288 19.2773)
(-1.29507e-22 7.02715 18.3742)
(-4.44098e-22 6.37873 17.481)
(-7.64889e-22 5.77739 16.5751)
(-3.4826e-22 5.1852 15.5998)
(2.27004e-21 4.52626 14.4022)
(8.31932e-21 3.65514 12.6851)
(1.61261e-20 2.38923 10.0662)
(1.91054e-20 0.72331 6.33857)
(9.9554e-21 -1.01176 1.91899)
(-1.10631e-20 -2.2728 -1.79635)
(-3.86988e-20 -1.83534 -3.16558)
(-5.46895e-26 2.62585 17.1115)
(-1.36861e-25 8.04702 13.7149)
(4.0648e-25 5.16546 14.5765)
(2.90514e-24 4.96753 14.1921)
(8.6736e-24 4.03717 14.1606)
(1.84693e-23 3.46296 13.9951)
(3.24337e-23 2.87739 13.8463)
(4.98971e-23 2.39604 13.6654)
(6.64279e-23 1.97648 13.4673)
(6.45644e-23 1.63064 13.2473)
(-3.46459e-24 1.35455 13.0081)
(-2.32058e-22 1.15225 12.754)
(-7.4949e-22 1.02877 12.4971)
(-1.62305e-21 1.00381 12.2486)
(-2.65193e-21 1.10497 12.0029)
(-3.21822e-21 1.30213 11.7385)
(-2.64069e-21 1.62517 11.3213)
(-1.07376e-21 2.37213 10.3639)
(2.85853e-22 2.67907 8.8806)
(5.45728e-22 -0.126074 6.76969)
(5.63842e-26 -2.62585 17.1115)
(1.37062e-25 -8.04703 13.7149)
(-4.207e-25 -5.16547 14.5765)
(-2.96717e-24 -4.96753 14.1921)
(-8.93365e-24 -4.03716 14.1606)
(-1.9319e-23 -3.46294 13.9952)
(-3.43891e-23 -2.87736 13.8464)
(-5.32497e-23 -2.39599 13.6655)
(-7.13302e-23 -1.97642 13.4674)
(-7.19629e-23 -1.63055 13.2474)
(-7.97449e-24 -1.35443 13.0082)
(2.20445e-22 -1.15211 12.7541)
(7.61151e-22 -1.02864 12.4974)
(1.71293e-21 -1.00377 12.2491)
(2.88867e-21 -1.1051 12.0037)
(3.61882e-21 -1.30245 11.7394)
(3.10628e-21 -1.62565 11.3221)
(1.43425e-21 -2.37267 10.3645)
(-1.17788e-22 -2.67957 8.88122)
(-5.16328e-22 0.125899 6.7702)
(8.28306e-26 -11.3177 28.7684)
(3.06719e-25 -17.0689 25.1486)
(-3.43173e-25 -12.059 25.5451)
(-2.98686e-24 -12.6922 23.8478)
(-8.22232e-24 -10.9535 23.1129)
(-1.81428e-23 -10.2806 22.0357)
(-3.53561e-23 -9.28186 21.1289)
(-5.20809e-23 -8.50003 20.1851)
(-2.97781e-23 -7.72269 19.2778)
(1.12322e-22 -7.02692 18.3748)
(4.4019e-22 -6.37846 17.4817)
(7.89973e-22 -5.77705 16.5759)
(3.74036e-22 -5.18467 15.6005)
(-2.45028e-21 -4.52522 14.4021)
(-9.23481e-21 -3.65318 12.6835)
(-1.85122e-20 -2.38644 10.0629)
(-2.3314e-20 -0.720802 6.33499)
(-1.52781e-20 1.01271 1.91749)
(6.36397e-21 2.27249 -1.79543)
(3.68243e-20 1.83535 -3.16522)
(6.5809e-27 -14.3488 31.0078)
(-2.03325e-25 -18.2753 27.7453)
(-1.14529e-26 -13.5063 27.6566)
(5.00643e-24 -14.5522 25.2215)
(1.95502e-23 -12.4596 24.2737)
(3.96195e-23 -12.0698 22.6318)
(5.38941e-23 -10.9939 21.3908)
(6.60901e-23 -10.321 20.0343)
(1.1794e-22 -9.56378 18.7839)
(2.95784e-22 -8.92035 17.5328)
(6.42128e-22 -8.29594 16.3111)
(8.94758e-22 -7.71191 15.0778)
(8.68302e-23 -7.11321 13.7723)
(-3.63212e-21 -6.39907 12.2145)
(-1.21233e-20 -5.3442 10.056)
(-2.4267e-20 -3.6545 6.77263)
(-3.32308e-20 -0.861315 2.04638)
(-7.99565e-20 1.84195 -4.15757)
(-7.59981e-20 3.27205 -4.84947)
(7.13346e-20 2.65731 -6.4622)
(-2.19273e-26 -15.3405 31.1655)