/*--------------------------------*- C++ -*----------------------------------*\
| =========                 |                                                 |
| \\      /  F ield         | OpenFOAM: The Open Source CFD Toolbox           |
|  \\    /   O peration     | Version:  4.1                                   |
|   \\  /    A nd           | Web:      www.OpenFOAM.org                      |
|    \\/     M anipulation  |                                                 |
\*---------------------------------------------------------------------------*/
FoamFile
{
    version     2.0;
    format      ascii;
    class       volScalarField;
    location    "15";
    object      p;
}
// * * * * * * * * * * * * * * * * * * * * * * * * * * * * * * * * * * * * * //

dimensions      [0 2 -2 0 0 0 0];

internalField   nonuniform List<scalar> 
1280
(
1.64155
0.658688
1.48454
3.27121
6.6755
6.98351
6.66654
7.30672
8.59996
8.20925
7.73224
7.26174
6.60378
3.48317
1.18285
-0.23863
-5.44857
-7.43612
-5.52998
-14.4437
-12.0807
4.74726
25.6161
30.7611
29.8626
32.451
-14.3046
19.3209
19.4285
18.162
17.1797
15.9322
14.4415
12.6449
10.8372
8.89159
8.28526
8.11524
10.7913
8.41066
-37.0064
0.498863
10.1584
13.9878
29.9391
29.5337
30.4518
31.4078
33.6652
32.7825
32.7542
33.675
29.5296
26.4261
25.3481
30.2338
9.05727
3.99702
-8.79489
-37.9637
9.80797
13.3666
11.2195
12.2039
13.5199
16.2504
18.8288
21.3976
23.6273
25.7089
27.4331
28.9643
30.4283
19.6932
54.0217
50.7553
50.475
44.417
23.5717
7.34276
4.83449
12.232
14.4977
14.2558
17.5711
18.7261
18.4723
19.8299
19.4682
19.5035
19.799
18.6902
17.3478
16.7174
16.3358
15.1905
10.5206
8.47052
4.83883
2.55536
-0.148769
-0.573065
-0.613717
-0.937871
-0.448329
0.746246
1.29252
1.95366
2.26962
1.49747
2.10176
1.1629
-1.67816
-5.48475
-17.5998
-15.8319
-3.45811
2.52648
5.16311
-0.392848
-1.90077
-2.36934
-2.47492
-1.8956
-0.399323
0.6174
2.92685
4.38011
3.79658
1.53245
0.440436
-2.24227
-12.4061
-21.2051
-18.1022
-1.92073
6.46472
11.2034
-0.870104
-4.01092
-4.91989
-4.08841
-2.89849
-1.17892
0.299008
2.88359
3.54164
5.55673
1.94105
0.716363
-4.15723
-20.9144
-20.2981
-22.3447
-0.0457774
10.7435
16.1106
-1.37299
-6.44815
-7.80333
-5.98488
-4.23748
-2.05421
0.0593474
2.96123
2.50898
5.84219
0.140171
-0.858895
-5.34642
-19.8407
-19.1266
-28.2896
0.805493
14.5057
21.3485
-2.0408
-9.27821
-11.0705
-8.17818
-5.94086
-3.34511
-0.669581
2.18892
0.519688
4.32514
-2.37258
-2.87152
-6.64873
-15.1313
-20.5972
-30.3015
1.45135
17.3924
25.2253
-2.72698
-11.7344
-13.2989
-9.99492
-7.66445
-4.83544
-1.81359
0.55532
-2.88404
1.45768
-4.34494
-3.88055
-6.68727
-9.46947
-25.0252
-29.2822
1.41027
20.6896
30.1507
-3.323
-12.9829
-14.2301
-11.4824
-9.342
-6.38457
-3.2073
-1.19127
-6.20933
-1.42455
-4.42115
-2.71673
-4.09418
-3.24291
-24.5468
-23.2383
1.82433
21.8547
30.1836
-3.88188
-13.2537
-14.5509
-12.7596
-10.7895
-7.8622
-4.67514
-2.53315
-7.96998
-3.7928
-3.21391
-0.552246
0.0631048
3.02377
-20.2016
-16.3829
1.80116
25.886
38.8262
-4.40722
-12.8456
-14.5117
-13.4586
-11.8204
-9.0896
-6.02393
-3.47528
-8.6542
-6.14949
-1.82183
1.7451
4.77919
9.99786
-10.1171
-10.2464
0.73213
20.5442
63.5685
-4.76304
-12.0101
-14.0397
-13.6074
-12.4327
-9.96695
-7.11418
-4.12975
-8.69282
-8.19955
-0.24853
4.01603
9.499
17.3932
5.63269
1.00481
3.29518
18.0417
56.6821
-4.92342
-10.9837
-13.3341
-13.4067
-12.6857
-10.4703
-7.83182
-4.49988
-7.56231
-9.22501
1.52498
6.29616
14.0277
23.5158
16.2488
9.4919
3.55044
11.0576
52.3516
-4.908
-9.89899
-12.5387
-12.9745
-12.6488
-10.6116
-8.07569
-4.61649
-5.06163
-8.96552
3.15593
8.21507
18.2541
30.9663
25.8667
14.1893
3.08107
13.8658
57.7454
-4.80123
-8.86012
-11.7491
-12.366
-12.33
-10.3526
-7.73119
-4.61237
-1.8153
-7.61141
4.49271
9.46906
20.9328
36.6626
31.862
18.6233
1.48646
-8.81146
4.44383
-4.65949
-7.81742
-10.9616
-11.6414
-11.7906
-9.72056
-6.73672
-4.59444
0.762514
-5.73206
5.34101
10.09
21.7681
38.4631
32.9343
17.9906
-6.26089
-31.8833
-25.2548
-4.61072
-6.80841
-10.2053
-10.7901
-10.919
-8.57024
-4.98699
-4.49322
0.463013
-3.84514
5.40931
10.1483
21.2781
36.2556
31.5671
16.2938
-6.28158
-25.4572
-22.2316
-4.32832
-5.48647
-9.24712
-9.88838
-9.99554
-7.22197
-2.69705
-2.28777
-1.82759
-1.97632
4.80873
9.54189
19.4078
31.5077
28.5173
13.5599
-6.78929
-22.3503
-20.6144
-4.27059
-4.20107
-8.06757
-8.51476
-8.16533
-4.92489
-0.0956907
3.30109
-3.28103
-0.682485
3.97485
8.35692
16.5518
25.6446
23.6034
10.7934
-4.39189
-14.9886
-10.1863
-3.17572
-2.13744
-5.95304
-6.68676
-6.50454
-3.63857
0.045417
4.12279
-2.25449
-0.24507
3.30038
7.11225
13.5806
19.8897
18.099
7.73494
-1.713
-7.67633
-4.45468
-2.79943
-1.38737
-3.93117
-3.59961
-2.05938
0.127265
1.30455
1.11548
-1.01162
-0.761562
2.06198
5.26664
10.2914
14.5044
12.5206
4.5446
-0.355875
-3.33332
-1.40365
-0.798734
0.947686
-0.260318
-1.0489
-2.65753
-3.26602
-0.196244
-1.32964
-1.98031
-2.15025
-1.09488
0.512167
3.18707
5.61292
4.93464
1.2006
-0.208673
-1.02389
-0.153116
116.514
116.702
114.86
113.758
111.344
109.005
106.367
104.024
101.52
99.2143
97.1236
95.2557
93.6543
92.3119
91.2424
90.3705
89.7173
89.1176
88.7905
87.9491
67.4128
70.1007
69.8584
70.7915
71.366
72.1465
72.898
73.5708
74.2503
74.8609
75.4589
76.0446
76.6274
77.2286
77.8444
78.5301
79.217
80.0685
80.6732
81.5782
54.4678
56.8743
58.3308
59.95
61.2276
62.3097
63.3703
64.2612
65.1075
65.8664
66.5724
67.2468
67.8993
68.5673
69.2363
69.9811
70.7026
71.6064
72.281
73.3325
19.4182
22.1441
26.1187
29.8751
33.1424
35.9147
38.578
40.9797
43.251
45.334
47.2458
48.999
50.5969
52.0849
53.452
54.7917
55.9986
57.3138
58.2675
59.6629
2.50759
3.00566
5.26882
7.15651
9.02568
10.6141
12.444
14.2279
16.1575
18.1275
20.1488
22.1815
24.1841
26.153
28.0312
29.9237
31.7158
33.8788
35.82
38.8067
0.906572
-3.05365
-5.60332
-8.61205
-10.965
-13.7248
-15.9967
-18.3025
-19.9937
-21.1985
-21.678
-21.5016
-20.6627
-19.2417
-17.3951
-15.2522
-13.1753
-10.9726
-9.16717
-5.6407
39.7763
33.1107
29.8346
25.1803
21.1698
16.3279
11.7474
6.66707
1.85453
-2.93797
-7.29841
-11.2314
-14.48
-16.9054
-18.307
-18.7469
-18.385
-17.7954
-18.0737
-17.4264
91.9743
87.505
85.6265
82.4169
80.4747
77.4961
75.2107
72.4537
70.1067
67.6573
65.4435
63.2586
61.2084
59.2465
57.4959
56.0274
55.1178
55.3384
54.8387
50.5285
115.296
115.711
116.22
115.955
116.499
115.937
115.809
114.671
113.34
111.177
108.47
105.064
101.125
96.8498
92.7166
89.2278
86.7412
85.4317
85.3703
83.1136
92.1689
94.3674
95.9083
96.8644
98.8808
99.914
101.84
103.243
104.889
106.194
107.238
107.742
107.575
106.619
105.045
103.273
102.212
101.979
102.493
102.42
76.9018
78.7943
80.6017
80.9668
83.0517
83.5577
85.1192
86.0167
87.1725
88.2085
89.2668
90.3611
91.5043
92.7044
93.9399
95.1972
96.4087
97.6996
98.6617
99.8887
51.5468
53.3559
55.8398
56.1058
58.9278
59.5906
61.7719
63.0909
64.8116
66.3758
67.9544
69.5187
71.0594
72.6076
74.1485
75.7505
77.3105
79.0373
80.3709
82.1667
25.0429
25.4147
28.0888
27.3921
30.3395
30.2687
32.5036
33.4451
35.2141
36.7556
38.5062
40.3346
42.2628
44.3123
46.4151
48.6361
50.8229
53.2646
55.2466
58.3738
5.02932
2.70483
4.45526
1.72707
3.2534
0.93629
1.43302
-0.0254608
-0.335783
-1.23076
-1.75054
-2.14224
-2.05276
-1.34462
-0.054622
1.80312
3.91675
6.43627
8.24237
11.7457
19.0224
14.9213
15.8763
11.9261
12.4045
9.02823
8.28126
5.5358
3.72814
1.08547
-1.41219
-4.12588
-6.65072
-8.92878
-10.8091
-12.4176
-13.6998
-14.2217
-14.6813
-12.8232
51.0479
46.6793
48.2486
43.7171
44.9909
42.0361
42.083
40.5324
40.0301
39.1571
38.627
38.0746
37.616
37.1028
36.5251
35.6672
34.2598
32.5554
29.266
27.4103
81.0616
77.2166
80.0432
74.0089
75.1333
71.3904
70.4967
68.2922
66.9302
65.4461
64.3025
63.3492
62.6696
62.2175
61.9266
61.714
61.5061
61.1864
60.5682
59.2141
63.6761
57.7383
66.5933
60.451
63.3364
60.8643
60.5528
58.9818
57.7521
56.2728
54.8716
53.516
52.3099
51.2695
50.445
49.9223
49.6483
49.9886
51.0002
52.5915
70.9708
48.7601
56.8151
45.8842
43.1253
36.5419
31.6037
26.3548
21.7788
17.6667
14.246
11.5791
9.77518
8.91785
9.16005
10.4898
12.7132
16.0142
19.763
22.697
761.908
679.162
629.924
573.677
524.673
477.455
433.605
392.254
353.406
316.773
282.176
249.409
218.26
188.634
160.517
133.085
106.556
85.2558
61.3472
25.5145
771.704
688.956
639.719
583.472
534.467
487.249
443.398
402.048
363.2
326.567
291.97
259.203
228.054
198.429
170.313
142.881
116.352
95.0551
71.1491
35.3153
80.7452
58.5342
66.5893
55.6583
52.8993
46.3158
41.3776
36.1289
31.5532
27.4417
24.0216
21.3555
19.5524
18.6958
18.9385
20.2686
22.4931
25.7942
29.5398
32.4739
73.4409
67.5044
76.36
70.2182
73.1034
70.6312
70.319
68.7472
67.5164
66.0359
64.6331
63.2757
62.0677
61.0251
60.1984
59.6739
59.3983
59.7375
60.7555
62.3555
90.8692
87.0283
89.8572
83.8259
84.9531
81.2132
80.3228
78.1219
76.7641
75.285
74.1471
73.2004
72.5282
72.0844
71.8027
71.5995
71.3992
71.0952
70.4923
69.1452
60.9631
56.5987
58.1707
53.6432
54.9222
51.9728
52.0261
50.4824
49.9873
49.1219
48.599
48.0527
47.5984
47.0868
46.5092
45.651
44.2418
42.5357
39.2395
37.3678
28.9227
24.8172
25.7681
21.8133
22.2871
18.9055
18.1532
15.4017
13.5873
10.9366
8.43098
5.70865
3.1746
0.887467
-0.998375
-2.6131
-3.90734
-4.43835
-4.90628
-3.05529
14.8112
12.4778
14.2217
11.4876
13.0066
10.6828
11.1725
9.70691
9.39006
8.48844
7.96348
7.56779
7.65476
8.36102
9.64998
11.5065
13.6194
16.1363
17.9406
21.4457
34.7612
35.128
37.8008
37.1018
40.0475
39.9743
42.2081
43.1477
44.9158
46.4561
48.206
50.0339
51.9618
54.011
56.1136
58.3345
60.5222
62.9656
64.9499
68.081
61.2773
63.0856
65.5706
65.8368
68.6597
69.323
71.5054
72.825
74.5467
76.1118
77.6915
79.2571
80.7993
82.349
83.8914
85.4948
87.0559
88.7838
90.1181
91.9158
86.6314
88.5249
90.3338
90.6999
92.7862
93.2938
94.8571
95.7572
96.9159
97.9561
99.0188
100.118
101.265
102.468
103.704
104.961
106.172
107.464
108.427
109.657
101.95
104.152
105.697
106.656
108.676
109.712
111.64
113.045
114.692
115.995
117.034
117.533
117.359
116.398
114.821
113.057
112.01
111.793
112.313
112.245
125.025
125.45
125.958
125.696
126.239
125.677
125.549
124.411
123.08
120.918
118.216
114.821
110.901
106.649
102.541
99.0772
96.6104
95.3102
95.2539
93.0136
101.911
97.4568
95.5883
92.3919
90.4612
87.4961
85.2241
82.4805
80.145
77.705
75.498
73.316
71.2643
69.2964
67.5361
66.0586
65.1457
65.3749
64.8928
60.585
49.6644
42.9954
39.7179
35.0602
31.045
26.1982
21.6141
16.5316
11.7203
6.93327
2.58115
-1.34095
-4.57438
-6.98391
-8.3683
-8.79149
-8.41629
-7.81864
-8.09472
-7.46177
10.6149
6.64006
4.09928
1.09743
-1.24881
-4.00089
-6.26279
-8.55588
-10.232
-11.4201
-11.8846
-11.6964
-10.8496
-9.42718
-7.58541
-5.45301
-3.38889
-1.19848
0.598599
4.12233
11.9945
12.5031
14.7936
16.7015
18.5888
20.1934
22.038
23.8342
25.7736
27.7502
29.7745
31.8068
33.8059
35.7691
37.6405
39.527
41.3152
43.4802
45.4303
48.4267
29.1277
31.8666
35.8697
39.6461
42.9314
45.7187
48.3943
50.8064
53.0859
55.1751
57.0911
58.8471
60.4469
61.9365
63.3055
64.6481
65.8588
67.1796
68.1381
69.5433
64.0831
66.5367
68.0405
69.7013
71.0116
72.1233
73.2093
74.1213
74.9843
75.7544
76.4676
77.1454
77.7985
78.465
79.1313
79.8729
80.5909
81.4926
82.1644
83.2182
77.9781
80.5859
80.2954
81.181
81.7294
82.4887
83.2265
83.8779
84.5236
85.0956
85.6557
86.2038
86.7506
87.3184
87.9044
88.565
89.23
90.0652
90.6536
91.5478
125.257
125.602
123.968
123.163
121.116
119.2
116.984
114.678
112.11
109.762
107.617
105.675
103.987
102.548
101.374
100.39
99.6199
98.8911
98.4425
97.4254
)
;

boundaryField
{
    outletWall
    {
        type            fixedValue;
        value           uniform 0;
    }
    fineWalls
    {
        type            zeroGradient;
    }
    fineFrontAndBack
    {
        type            zeroGradient;
    }
    fineplugLeft
    {
        type            cyclicAMI;
        value           nonuniform List<scalar> 
20
(
72.0414
73.1907
72.9171
73.4309
74.0747
75.1614
76.3785
77.8118
79.391
81.1349
83.0038
85.1016
87.0836
92.6455
93.6941
95.0478
97.1584
97.0114
94.311
90.7951
)
;
    }
    fineplugRight
    {
        type            cyclicAMI;
        value           nonuniform List<scalar> 
20
(
79.9019
81.4274
81.3568
82.1367
83.016
84.3489
85.8038
87.4688
89.2653
91.2357
93.2963
95.4805
97.828
105.922
106.164
107.044
108.625
108.058
105.196
101.674
)
;
    }
    inletOutletLeft
    {
        type            cyclicAMI;
        value           nonuniform List<scalar> 
20
(
72.0414
73.1907
72.9171
73.4309
74.0747
75.1614
76.3785
77.8118
79.391
81.1349
83.0038
85.1016
87.0836
92.6455
93.6941
95.0478
97.1584
97.0114
94.311
90.7951
)
;
    }
    inletLeft
    {
        type            zeroGradient;
    }
    inletWallsLeft
    {
        type            zeroGradient;
    }
    inletFacesLeft
    {
        type            zeroGradient;
    }
    inletOutletRight
    {
        type            cyclicAMI;
        value           nonuniform List<scalar> 
20
(
79.9019
81.4274
81.3568
82.1367
83.016
84.3489
85.8038
87.4688
89.2653
91.2357
93.2963
95.4805
97.828
105.922
106.164
107.044
108.625
108.058
105.196
101.674
)
;
    }
    inletRight
    {
        type            zeroGradient;
    }
    inletWallsRight
    {
        type            zeroGradient;
    }
    inletFacesRight
    {
        type            zeroGradient;
    }
}


// ************************************************************************* //
