/*--------------------------------*- C++ -*----------------------------------*\
| =========                 |                                                 |
| \\      /  F ield         | OpenFOAM: The Open Source CFD Toolbox           |
|  \\    /   O peration     | Version:  4.1                                   |
|   \\  /    A nd           | Web:      www.OpenFOAM.org                      |
|    \\/     M anipulation  |                                                 |
\*---------------------------------------------------------------------------*/
FoamFile
{
    version     2.0;
    format      ascii;
    class       surfaceScalarField;
    location    "15";
    object      phi;
}
// * * * * * * * * * * * * * * * * * * * * * * * * * * * * * * * * * * * * * //

dimensions      [0 3 -1 0 0 0 0];

internalField   nonuniform List<scalar> 
2360
(
-12006.8
-7882.88
-4123.87
-7882.88
-7882.88
-3276.85
-4606.03
-3276.85
-3276.85
-3276.85
1536
-4812.85
1536
1536
6303.18
-4767.19
6303.19
6303.18
10412.5
-4109.36
10412.5
10412.6
13518.6
-3106.03
13518.6
13518.6
14121.6
15712.3
17422.1
18987.3
20380.4
21635.5
17264.9
5557.16
18361.3
19388
20350.1
21249.4
22085.4
22855.4
23557
24195
24795.2
25407.4
26085.2
26830.4
27461.5
11796.4
15665.1
11796.4
11796.4
11796.4
2453.11
9343.33
2453.1
2453.1
2453.1
-885.473
3338.57
-885.478
-885.481
-6848.52
5963.04
-6848.52
-6848.52
-6848.52
-16557.6
9709.06
-16557.6
-16557.6
-16557.6
-28495.6
11938
-27859.7
-27113.9
-26436.5
-25825.5
-25227.4
-24592.6
-23895.3
-23130.1
-22299.2
-21405.2
-20448.5
-19427.7
-18339
-20477.5
3316.08
-19216.4
-17816.8
-16244.6
-14525.9
-12923.3
-12311.7
-12311.7
-12311.7
-8560.92
-3750.78
-8560.92
-8560.92
-5168.93
-3391.98
-5168.94
-5168.93
-1496.79
-3672.15
-1496.79
-1496.79
2399.74
-3896.53
2399.74
2399.74
2399.74
6271.54
-3871.8
6271.54
6271.54
10633.4
-4361.85
741.314
-4382.63
1015.36
-3358.43
1109.12
2091.64
966.391
5936.6
550.458
7780.57
-193.394
7850.23
-1033.35
8242.28
-1147.95
9773.47
-1386.35
-3058.81
-2836.51
-14727.4
-4716.21
-17625.6
-5322.67
-20555.4
-4018.28
-21517.8
-301.464
-10945.8
3206.41
11065.5
5081.48
21780.9
5600.8
21996.4
5385.15
15981.9
6064.79
1497.81
-4686.2
1756.61
-3617.23
1549.39
2298.86
1068.45
6417.53
448.562
8400.46
-413.508
8712.3
-1419.5
9248.27
-1755.55
10109.5
-3219.95
-1594.4
-5855.58
-12091.7
-8024.1
-15457.1
-8458.07
-20121.4
-6796.94
-23179
-1705.62
-16037.1
2851.65
6508.21
4574.75
20057.8
5219.67
21351.5
5015.8
16185.7
7208.79
1790.88
-5089.99
2087.44
-3913.79
1781.3
2605.01
1202.85
6995.98
369.659
9233.65
-734.02
9815.98
-1968.76
10483
-2749.8
10890.6
-5024.29
680.093
-7755.25
-9360.77
-9585.46
-13626.9
-10122.2
-19584.6
-8877.97
-24423.3
-3997.69
-20917.3
1659.43
851.091
3620.53
18096.7
4464.2
20507.8
4426.62
16223.3
7738.87
1927.68
-5512.6
2137.87
-4123.98
1724.74
3018.14
1161.08
7559.65
246.023
10148.7
-1070.37
11132.4
-2530.16
11942.8
-3777.85
12138.2
-6581.6
3483.84
-9185.98
-6756.38
-10728.5
-12084.3
-11498.5
-18814.6
-10951
-24970.8
-7154.28
-24714.1
-629.409
-5673.78
2216.24
15251.1
3188.76
19535.3
3549.98
15862.1
7616.7
1722.29
-5808.31
1711.28
-4112.97
1221.95
3507.47
778.225
8003.38
-54.9269
10981.9
-1443.84
12521.3
-3069.03
13568
-4653.35
13722.6
-7511.4
6341.89
-9411.8
-4855.98
-10240
-11256.1
-11079.8
-17974.8
-11584.1
-24466.5
-9350.37
-26947.8
-2945.45
-12078.7
479.013
11826.6
1479.97
18534.4
2419.61
14922.4
6644.33
1077.32
-5839.38
729.958
-3765.61
327.633
3909.79
47.0473
8283.96
-626.171
11655.1
-1918.19
13813.3
-3570.57
15220.4
-5245.68
15397.7
-7578.1
8674.32
-8185.77
-4248.31
-7851.31
-11590.5
-8366.03
-17460.1
-9937.98
-22894.6
-9971.6
-26914.2
-5405
-16645.3
-1854.95
8276.54
-555.424
17234.8
1132.02
13235
4025.58
1.47976
-5590.08
-773.884
-2990.25
-959.4
4095.31
-1066.53
8391.09
-1510.03
12098.6
-2551.32
14854.6
-4054.66
16723.7
-5603.48
16946.5
-7090.11
10160.9
-6446.38
-4892.03
-5067.07
-12969.8
-4875.75
-17651.4
-6747.8
-21022.5
-9004.7
-24657.3
-7668.92
-17981.1
-4428.95
5036.57
-2443.45
15249.3
16.7881
10774.8
7358.44
-1408.88
-5135.18
-2334.16
-2064.97
-2442.59
4203.73
-2412.18
8360.68
-2610.51
12296.9
-3323.62
15567.7
-4551.58
17951.7
-5886.05
18281
-6697.1
10972
-5504.87
-6084.27
-3844.47
-14630.2
-3311.44
-18184.5
-4588.74
-19745.2
-7682.32
-21563.7
-9146.29
-16517.1
-6225.75
2116.03
-3854.89
12878.5
-5568.6
12488.5
13727.9
-2839.93
-4551.35
-3751.55
-1153.35
-3838.01
4290.19
-3734.72
8257.39
-3746.28
12308.5
-4152.11
15973.5
-5066.52
18866.1
-6141.51
19356
-6426.94
11257.4
-5034.95
-7476.26
-3617.63
-16047.6
-3547.71
-18254.4
-4577.66
-18715.3
-7613.99
-18527.4
-11104.8
-13026.3
-10103.6
1114.77
-8754.64
11529.6
-10319.4
14053.3
13117.5
-4187.93
-3931.03
-4978.72
-362.56
-5034.89
4346.36
-4896.03
8118.52
-4792.32
12204.8
-4969.71
16150.9
-5596.48
19492.8
-6354.46
20114
-6014.04
10917
-4305.5
-9184.8
-3254.46
-17098.6
-3843.14
-17665.7
-5179.3
-17379.1
-8441.78
-15264.9
-13119.4
-8348.7
-14543.7
2539.05
-13495.1
10481
-11559.7
12117.9
7520.85
-5398.89
-3346.28
-6024.28
262.83
-6057.72
4379.8
-5903.75
7964.55
-5736.27
12037.3
-5767.51
16182.2
-6152.77
19878.1
-6517.57
20478.7
-5355.42
9754.86
-3314.18
-11226
-2783.47
-17629.3
-3791.79
-16657.4
-5270.12
-15900.8
-8739.6
-11795.4
-12751
-4337.28
-14269
4057
-13407.5
9619.53
-9991.52
8701.91
867.902
-6472.18
-2843.45
-6925.87
716.524
-6967.73
4421.66
-6828.79
7825.61
-6639.62
11848.1
-6588.21
16130.8
-6764.1
20054
-6623.94
20338.6
-4435.98
7566.9
-2377.53
-13284.5
-2529.63
-17477.2
-3562.87
-15624.2
-4867.57
-14596.1
-8728.23
-7934.74
-12965.9
-99.6286
-14626.3
5717.38
-14817
9810.23
-13691.4
7576.34
-3480.16
-7442.25
-2452.51
-7719.06
993.332
-7798.87
4501.48
-7729.09
7755.82
-7574.83
11693.9
-7494.82
16050.7
-7459.45
20018.6
-6631.38
19510.5
-3236.88
4172.4
-1643.4
-14878
-2470.42
-16650.2
-3101.46
-14993.1
-3878.57
-13819
-6905.36
-4907.95
-11012.2
4007.2
-13077.9
7783.11
-14052.4
10784.7
-15178.7
8702.63
-2993.75
-8393.76
-2180.42
-8456.73
1056.31
-8539.36
4584.11
-8587.25
7803.7
-8553.34
11660
-8514.99
16012.4
-8218.71
19722.3
-6411.63
17703.4
-2004.77
-234.464
-1201.86
-15680.9
-2352.58
-15499.5
-2438.93
-14906.8
-2695.02
-13562.9
-3672.89
-3930.08
-6536.56
6870.87
-8338.04
9584.6
-7912.93
10359.6
-5267.86
6057.55
-2704.44
-9463.41
-1938.95
-9336.4
929.303
-9304.39
4552.1
-9420.13
7919.45
-9551.26
11791.1
-9603.46
16064.6
-8881.9
19000.8
-5558.41
14379.9
-1130.22
-4662.65
-1234.22
-15576.9
-2008.15
-14725.6
-1746.26
-15168.7
-1759.78
-13549.4
-765.809
-4924.05
-1404.61
7509.67
-2831.81
11011.8
-2740.58
10268.4
-327.852
3644.83
-6138.33
-10666.2
-1589.17
-10515
778.061
-10329
4366.09
-10428.8
8019.26
-10696.1
12058.4
-10751.6
16120.1
-9208.45
17457.6
-3977.46
9148.95
-637.1
-8003.01
-1542.39
-14671.6
-1512.03
-14755.9
-1127.43
-15553.3
-877.746
-13799.1
873.77
-6675.56
2541.62
5841.82
3032.28
10521.1
3629.54
9671.1
4508.85
2765.52
-5738.84
-11907.7
-883.414
-12128.9
999.166
-11985.7
4222.93
-12067
8100.58
-12274.5
12265.9
-11837.7
15683.3
-8850.32
14470.2
-2750.43
3049.05
-751.486
-10001.9
-1628.43
-13794.6
-1053.91
-15330.4
-598.842
-16008.3
-80.2381
-14317.7
1555.58
-8311.38
4009.03
3388.37
5927.3
8602.86
7329.46
8268.93
7138.14
2956.85
-3367.89
-12626.4
111.029
-13420.8
1793.58
-13706.4
4508.56
-13972.1
8366.3
-13866.4
12160.2
-12124.7
13941.6
-7078.11
9423.6
-1949.35
-2079.71
-1370.1
-10581.2
-1428.79
-13736
-733.33
-16025.9
-151.271
-16590.4
548.183
-15017.1
1936.21
-9699.41
4247.51
1077.07
6158.14
6692.24
7534.88
6892.19
7177.32
3314.41
-1003.42
-13078.6
1494.76
-14598.6
3313.55
-15311
5221.02
-15490
8545.32
-14298.5
10968.6
-10509.7
10152.9
-4506.01
3419.93
-1560.76
-5024.96
-1746.18
-10395.8
-1204.96
-14277.2
-501.289
-16729.6
200.02
-17291.7
981.893
-15799
2126.15
-10843.7
3976.14
-772.919
5487.09
5181.29
6528.12
5851.17
6348.19
3494.33
738.743
-11139.9
-13158.8
-14109.7
-13881.9
-11660.8
-7341.23
-3438.45
-2240.17
-1779.71
-1090.87
-335.974
438.817
1228.45
2068.08
3218.37
4203.08
4846.73
5043.87
-47.8747
-555.115
176.728
-1815.28
411.622
-1944.69
592.287
-1745.9
733.091
-1533.92
849.013
-1371.03
907.464
-1245.02
957.445
-1146.3
989.872
-1059.18
1003.94
-976.156
999.69
-895.033
978.732
-815.003
944.126
-735.381
898.393
-655.874
840.363
-579.945
760.811
-520.651
646.039
-497.466
482.849
-514.606
271.753
-534.086
-359.349
-38.6863
-516.421
-76.2623
-1777.7
-28.0474
-1992.9
29.8885
-1803.83
87.9997
-1592.02
145.854
-1428.87
211.055
-1310.21
274.689
-1209.92
333.894
-1118.38
387.554
-1029.81
435.716
-943.19
479.169
-858.45
519.498
-775.705
557.615
-693.986
590.463
-612.789
602.267
-532.451
565.161
-460.359
445.733
-395.177
242.841
-331.192
-116.508
-153.518
-362.896
-210.263
-1720.95
-127.517
-2075.64
-17.044
-1914.3
84.0042
-1693.07
176.609
-1521.47
263.059
-1396.66
343.916
-1290.77
416.147
-1190.61
476.404
-1090.06
521.842
-988.624
550.683
-887.285
562.52
-787.538
558.393
-689.854
540.117
-594.509
506.163
-498.492
447.665
-401.859
347.44
-294.949
183.961
-167.709
67.4539
18.3751
-381.265
-14.2245
-1688.35
26.7972
-2116.66
100.171
-1987.67
178.482
-1771.37
259.99
-1602.98
343.603
-1480.27
424.389
-1371.56
497.224
-1263.44
557.722
-1150.55
602.695
-1033.59
629.71
-914.297
636.876
-794.702
622.658
-675.633
586.09
-557.939
526.4
-438.8
441.597
-317.052
325.022
-178.37
168.973
-11.6555
236.427
410.122
-791.381
573.941
-1852.17
585.073
-2127.79
583.317
-1985.91
617.118
-1805.17
680.096
-1665.95
757.299
-1557.47
832.63
-1446.88
896.835
-1327.64
944.248
-1197.96
973.109
-1062.45
981.682
-922.866
967.68
-780.698
927.765
-635.714
857.997
-488.169
753.89
-334.691
609.372
-172.532
401.129
29.876
198.362
191.114
434.79
585.829
-1377.21
837.783
-2104.12
776.734
-2066.74
682.663
-1891.84
657.727
-1780.24
677.349
-1685.57
713.892
-1594.01
740.906
-1473.9
748.847
-1335.58
734.617
-1183.73
700.664
-1028.5
645.948
-868.15
568.138
-702.886
464.627
-532.202
335.313
-358.854
191.331
-190.707
62.7155
-43.911
-14.9714
107.569
-83.6492
259.796
351.141
320.913
-1698.12
310.577
-2093.78
131.787
-1887.95
-17.1782
-1742.87
-118.244
-1679.17
-202.416
-1601.4
-285.892
-1510.53
-381.101
-1378.69
-488.999
-1227.68
-606.354
-1066.38
-729.314
-905.537
-856.398
-741.065
-984.85
-574.431
-1107
-410.055
-1207.36
-258.482
-1259.59
-138.481
-1223.12
-80.3709
-1024.27
-91.2826
-599.92
-164.55
-248.779
-69.098
-1629.03
-224.385
-1938.5
-379.718
-1732.62
-531.796
-1590.8
-696.436
-1514.53
-877.584
-1420.25
-1066.93
-1321.19
-1257.54
-1188.07
-1445.01
-1040.21
-1628.66
-882.725
-1808.49
-725.709
-1977.89
-571.666
-2119.19
-433.13
-2199
-330.249
-2168.72
-288.763
-1979.91
-327.288
-1610.86
-449.424
-1068.32
-633.816
-439.885
-792.983
-688.665
-177.059
-1451.96
-208.248
-1907.31
-230.62
-1710.24
-311.747
-1509.67
-419.338
-1406.94
-546.918
-1292.67
-674.245
-1193.86
-785.558
-1076.76
-867.797
-957.973
-917.521
-832.998
-933.996
-709.232
-915.049
-590.61
-858.486
-489.69
-761.711
-427.02
-621.63
-428.842
-437.444
-511.471
-228.894
-657.972
-51.4883
-811.22
21.2031
-865.672
-667.462
-30.212
-1421.75
29.7576
-1967.28
93.5421
-1774.03
130.729
-1546.86
159.992
-1436.2
182.451
-1315.13
205.932
-1217.34
241.27
-1112.1
298.006
-1014.71
383.925
-918.919
501.467
-826.776
648.864
-738.008
813.328
-654.156
966.769
-580.461
1064.8
-526.872
1058.46
-505.129
917.663
-517.179
651.713
-545.271
320.508
-534.469
-346.953
68.9247
-1490.68
119.512
-2017.87
170.507
-1825.03
225.789
-1602.14
288.038
-1498.45
352.287
-1379.38
418.397
-1283.45
486.294
-1179.99
555.263
-1083.68
626.15
-989.804
698.631
-899.258
771.923
-811.298
842.962
-725.196
903.041
-640.54
934.222
-558.054
909.11
-480.019
802.389
-410.459
598.532
-341.415
316.865
-252.806
-30.0879
151.331
-1642.01
188.149
-2054.69
222.963
-1859.84
272.249
-1651.43
335.424
-1561.63
394.641
-1438.6
456.849
-1345.67
517.438
-1240.59
578.088
-1144.33
635.031
-1046.75
685.465
-949.695
725.073
-850.91
749.718
-749.845
755.116
-645.942
736.822
-539.764
686.765
-429.965
593.43
-317.126
440.012
-188
227.117
-39.9177
197.029
199.512
-1841.52
202.181
-2057.36
233.003
-1890.67
285.327
-1703.75
354.423
-1630.73
419.032
-1503.21
491.806
-1418.44
566.118
-1314.9
647.275
-1225.49
729.51
-1128.99
807.09
-1027.28
867.712
-911.533
899.307
-781.442
893.667
-640.303
847.77
-493.869
759.157
-341.354
627.633
-185.604
440.113
-0.483931
220.27
179.921
417.299
166.323
-2007.85
120.604
-2011.64
139.6
-1909.66
176.306
-1740.46
226.779
-1681.2
277.849
-1554.28
341.531
-1482.13
411.975
-1385.35
494.05
-1307.57
578.555
-1213.5
653.822
-1102.55
698.054
-955.768
697.688
-781.079
655.054
-597.673
576.282
-415.101
456.056
-221.134
314.335
-43.8882
209.236
104.607
79.7781
309.373
497.077
41.8291
-2049.68
-42.9126
-1926.9
-74.3749
-1878.2
-100.824
-1714.02
-123.85
-1658.18
-141.907
-1536.23
-155.783
-1468.25
-162.226
-1378.91
-163.208
-1306.59
-162.539
-1214.17
-170.784
-1094.31
-197.456
-929.1
-237.664
-740.876
-273.279
-562.063
-296.743
-391.644
-315.595
-202.291
-327.632
-31.8589
-348.589
125.559
-302.434
263.214
194.642
-43.3338
-2006.35
-120.047
-1850.19
-181.666
-1816.59
-248.299
-1647.39
-319.21
-1587.27
-389.111
-1466.33
-467.409
-1389.96
-547.444
-1298.88
-634.563
-1219.47
-722.657
-1126.08
-806.334
-1010.63
-870.3
-865.137
-900.241
-710.937
-891.932
-570.374
-851.041
-432.536
-779.851
-273.484
-706.144
-105.566
-544.887
-35.6986
-408.508
126.833
-213.865
-44.0591
-1962.29
-110.738
-1783.51
-161.131
-1766.2
-209.75
-1598.77
-259.414
-1537.61
-303.44
-1422.31
-351.905
-1341.49
-400.323
-1250.46
-450.957
-1168.84
-493.967
-1083.07
-513.169
-991.43
-488.658
-889.65
-416.438
-783.159
-310.176
-676.638
-178.8
-563.914
-22.0075
-430.28
133.783
-261.366
176.719
-78.6435
178.131
125.415
-35.7344
-125.728
-1836.57
-285.127
-1624.12
-403.79
-1647.53
-486.459
-1516.1
-558.316
-1465.75
-601.762
-1378.86
-632.593
-1310.66
-645.885
-1237.17
-645.797
-1168.93
-627.615
-1101.25
-584.559
-1034.49
-508.968
-965.243
-401.167
-890.96
-268.332
-809.474
-115.263
-716.985
53.6734
-599.219
218.282
-425.976
304.655
-165.019
310.246
119.822
274.512
-185.905
-1650.66
-416.625
-1393.4
-661.688
-1402.47
-861.352
-1316.44
-1050.68
-1276.42
-1204.71
-1224.84
-1333.95
-1181.42
-1433.53
-1137.6
-1506.75
-1095.71
-1553.74
-1054.27
-1575.29
-1012.94
-1570.09
-970.439
-1535.56
-925.488
-1468.52
-876.515
-1365.24
-820.271
-1214.93
-749.524
-994.633
-646.276
-683.236
-476.416
-324.904
-238.511
-50.3922
-675.663
-1094.06
-1521.54
-1862.97
-2164.39
-2414.24
-2620.66
-2783.25
-2903.96
-2983.22
-3021.17
-3016.6
-2967.09
-2868.61
-2713.88
-2488.4
-2159.68
-1661.1
-924.608
-675.681
1650.68
-1094.1
1393.42
-1521.59
1402.49
-1863.05
1316.46
-2164.49
1276.44
-2414.36
1224.87
-2620.81
1181.44
-2783.43
1137.62
-2904.17
1095.73
-2983.46
1054.29
-3021.42
1012.96
-3016.88
970.454
-2967.38
925.501
-2868.91
876.53
-2714.2
820.289
-2488.73
749.528
-2159.95
646.225
-1661.23
476.28
-924.607
238.375
50.3931
-185.92
1836.6
-416.648
1624.14
-661.723
1647.56
-861.393
1516.13
-1050.73
1465.78
-1204.75
1378.89
-1334
1310.69
-1433.57
1237.19
-1506.78
1168.95
-1553.76
1101.27
-1575.31
1034.51
-1570.13
965.275
-1535.64
891.008
-1468.65
809.541
-1365.43
717.064
-1215.18
599.281
-994.908
425.952
-683.362
164.733
-325.028
-119.96
-274.635
-125.672
1962.27
-284.999
1783.47
-403.594
1766.16
-486.174
1598.7
-557.938
1537.54
-601.272
1422.22
-631.978
1341.39
-645.127
1250.34
-644.881
1168.7
-626.537
1082.92
-583.341
991.312
-507.668
889.6
-399.858
783.196
-267.052
676.733
-114.018
564.028
54.8992
430.361
219.464
261.385
303.725
80.4691
309.185
-125.422
34.5495
-43.9276
2006.19
-110.502
1850.04
-160.774
1816.43
-209.271
1647.2
-258.809
1587.08
-302.709
1466.12
-351.046
1389.73
-399.34
1298.63
-449.845
1219.21
-492.714
1125.79
-511.756
1010.35
-487.107
864.949
-414.84
710.929
-308.637
570.528
-177.371
432.761
-20.7655
273.753
134.833
105.782
178.546
36.7502
179.512
-126.391
214.061
-43.419
2049.61
-120.135
1926.75
-181.796
1878.09
-248.505
1713.91
-319.492
1658.06
-389.501
1536.13
-467.927
1468.15
-548.116
1378.82
-635.408
1306.5
-723.658
1214.04
-807.414
1094.11
-871.326
928.86
-901.099
740.699
-892.595
562.023
-851.435
391.599
-779.67
201.987
-705.353
31.464
-543.397
-125.207
-407.212
-262.578
-193.151
41.5803
2008.03
-43.2469
2011.58
-74.8484
1909.69
-101.464
1740.52
-124.672
1681.27
-142.916
1554.37
-157.001
1482.24
-163.662
1385.48
-164.886
1307.72
-164.47
1213.62
-172.96
1102.6
-199.801
955.701
-240.027
780.925
-275.541
597.536
-298.894
414.951
-317.713
220.805
-330.092
43.8419
-350.769
-104.531
-303.739
-309.609
-496.89
166.225
1841.81
120.372
2057.43
139.271
1890.79
175.882
1703.91
226.248
1630.91
277.223
1503.39
340.808
1418.65
411.163
1315.12
493.142
1225.74
577.531
1129.23
652.635
1027.49
696.658
911.677
696.094
781.488
653.37
640.26
574.577
493.743
454.265
341.115
312.837
185.269
208.406
-0.101701
79.1721
-180.377
-417.718
199.649
1642.16
202.239
2054.84
233.025
1860
285.341
1651.6
354.44
1561.81
419.058
1438.78
491.856
1345.85
566.204
1240.78
647.412
1144.53
729.702
1046.94
807.327
949.868
867.964
851.041
899.533
749.918
893.852
645.942
847.91
539.684
759.226
429.799
627.625
316.869
439.909
187.614
220.115
39.4148
-197.602
151.542
1490.61
188.321
2018.06
223.089
1825.24
272.359
1602.32
335.543
1498.62
394.764
1379.55
456.984
1283.63
517.587
1180.17
578.266
1083.85
635.246
989.963
685.715
899.398
725.333
811.422
749.956
725.294
755.299
640.598
736.921
558.06
686.762
479.956
593.35
410.28
439.909
341.054
227.055
252.267
29.4523
69.1791
1421.44
119.767
1967.48
170.723
1774.28
226.009
1547.04
288.298
1436.33
352.574
1315.28
418.704
1217.5
486.582
1112.3
555.495
1014.94
626.277
919.182
698.564
827.112
771.593
738.394
842.345
654.542
902.217
580.726
933.304
526.973
908.252
505.008
801.719
516.813
598.101
544.672
316.647
533.72
346.099
-29.9781
1451.41
29.9981
1907.5
93.8401
1710.44
131.188
1509.69
160.657
1406.86
183.373
1292.56
207.137
1193.74
242.76
1076.67
299.754
957.943
385.897
833.038
503.621
709.387
651.177
590.838
815.744
489.975
969.127
427.343
1066.82
429.277
1059.94
511.895
918.598
658.152
652.248
811.021
320.841
865.127
666.94
-176.843
1628.26
-207.515
1938.18
-229.409
1732.33
-310.082
1590.37
-417.213
1514
-544.287
1419.64
-671.052
1320.5
-781.744
1187.37
-863.336
1039.54
-912.407
882.111
-928.193
725.175
-908.555
571.202
-851.345
432.767
-754.117
330.117
-613.909
289.07
-430.165
328.153
-222.876
450.865
-47.5627
635.709
22.7511
794.816
689.691
-70.037
1698.3
-225.331
2093.47
-380.518
1887.52
-532.659
1742.51
-697.528
1678.87
-878.954
1601.06
-1068.55
1510.1
-1259.34
1378.16
-1446.92
1227.12
-1630.63
1065.82
-1810.43
904.973
-1979.73
740.507
-2120.82
573.861
-2200.23
409.52
-2169.27
258.113
-1979.58
138.464
-1609.73
81.0207
-1066.86
92.8314
-438.943
166.904
250.748
319.581
1378.72
308.386
2104.66
129.31
2066.6
-19.8809
1891.7
-121.328
1780.32
-205.999
1685.74
-290.033
1594.14
-385.78
1473.91
-494.164
1335.5
-611.939
1183.59
-735.255
1028.29
-862.656
867.91
-991.387
702.594
-1113.73
531.861
-1214.11
358.504
-1265.96
190.316
-1228.54
43.5949
-1028.18
-107.52
-601.348
-259.929
-350.6
584.898
793.82
836.041
1853.52
774.469
2128.17
680.044
1986.13
654.794
1805.57
674.05
1666.48
710.146
1558.04
736.657
1447.4
744.087
1328.07
729.39
1198.29
695.015
1062.67
639.953
922.973
561.874
780.675
458.208
635.528
328.922
487.793
185.216
334.024
57.466
171.35
-17.6591
-32.3894
-85.1205
-192.464
-435.72
408.598
385.225
572.22
1689.9
583.28
2117.11
581.447
1987.96
615.2
1771.81
678.152
1603.53
755.355
1480.84
830.697
1372.06
894.927
1263.85
942.383
1150.84
971.311
1033.74
979.993
914.292
966.139
794.53
926.403
675.265
856.849
557.348
752.927
437.947
608.379
315.899
399.175
176.815
197.242
9.47144
-238.479
15.8023
369.424
-17.2127
1722.92
23.9266
2075.97
97.7197
1914.17
176.563
1692.97
258.538
1521.56
342.538
1396.84
423.614
1290.99
496.683
1190.78
557.394
1090.13
602.582
988.554
629.819
887.056
637.201
787.149
623.156
689.311
586.685
593.82
526.99
497.643
442.078
400.812
325.324
293.571
168.966
165.832
-69.5124
-159.069
528.495
-216.782
1780.63
-134.055
1993.25
-23.7865
1803.9
76.7905
1592.4
168.943
1429.41
255.202
1310.58
336.348
1209.84
409.186
1117.94
470.207
1029.11
516.481
942.28
546.18
857.359
558.876
774.454
555.594
692.594
538.103
611.312
504.806
530.941
446.792
458.826
346.905
393.458
183.606
329.132
114.093
-45.7752
574.271
-84.8529
1819.71
-35.1835
1943.58
25.7487
1742.97
87.2226
1530.92
148.744
1367.88
217.454
1241.87
283.414
1143.88
343.952
1057.4
398.382
974.679
446.925
893.738
490.382
813.903
530.372
734.464
567.806
655.16
599.616
579.502
610.114
520.444
571.692
497.248
450.906
514.244
246.419
533.619
360.513
-37.3267
179.813
404.607
575.382
706.696
813.505
877.806
932.973
969.601
987.597
987.325
970.35
939.638
897.422
842.203
764.539
650.791
487.611
275.448
)
;

boundaryField
{
    outletWall
    {
        type            calculated;
        value           nonuniform List<scalar> 
60
(
10633.4
-5041.49
-15766.2
-22515.7
-23656
-14573.4
7228.94
20213.5
21161.8
19505.3
16177.5
3297.2
-9658.86
-7402.32
-7106.38
-7364.64
-5793.87
-2185.4
3084.38
4158.92
9631.51
11694.8
11631.9
11202
10316.4
9221.94
8121.66
7051.31
5969.35
4814.14
3567.61
2256.1
953.991
-250.788
-1046.25
-1426.58
-1505.06
-1387.1
-1194.23
-517.604
12006.8
1658.75
3297.19
5207.51
4196.58
-1923.21
-11683.3
-16588.6
-18066.5
-17484.5
-14966
-10856.2
-6223.24
-482.849
5833.28
8747.54
8317.52
6171.87
5332.51
3003.12
)
;
    }
    fineWalls
    {
        type            calculated;
        value           uniform 0;
    }
    fineFrontAndBack
    {
        type            calculated;
        value           nonuniform List<scalar> 
960
(
-1.57192e-12
-5.88669e-12
-1.36524e-12
-1.43093e-12
-8.73797e-12
-1.85066e-12
-1.32152e-12
-1.13425e-12
-2.04233e-11
-9.27893e-12
-1.34488e-11
-1.73168e-11
3.63575e-12
4.56114e-12
1.51133e-11
2.26839e-12
2.28708e-12
5.20075e-12
8.09682e-13
3.93126e-13
2.2813e-13
-9.39293e-14
-1.02236e-13
-1.34978e-13
-1.85072e-13
-3.04199e-13
-2.38711e-13
-3.63575e-13
-3.45896e-13
-2.99465e-13
-2.29416e-13
-1.17532e-13
6.71181e-14
3.09596e-13
5.40584e-13
6.21368e-13
4.78544e-13
2.02566e-13
8.96083e-14
-1.33323e-13
7.59606e-12
1.28137e-12
6.05457e-13
-4.08522e-13
1.72086e-12
7.47816e-13
3.26186e-13
-1.67845e-14
8.56906e-12
-9.89593e-13
4.62775e-12
1.55943e-11
3.02292e-12
2.55345e-12
1.9635e-12
4.06868e-12
-7.39921e-13
-1.97969e-12
-2.7803e-12
-1.33134e-11
1.43326e-13
-3.4612e-14
-1.513e-13
-4.15624e-13
-5.25198e-13
-4.27397e-13
-1.95834e-13
4.61277e-14
2.45979e-13
3.98299e-13
4.95624e-13
5.72662e-13
6.18126e-13
6.86113e-12
6.10885e-13
5.10105e-13
4.81289e-13
4.53987e-13
4.87385e-13
1.56793e-13
2.06386e-12
2.07439e-12
1.63333e-11
4.29264e-12
5.06155e-12
2.95311e-11
5.99359e-12
5.60954e-12
6.78636e-12
-3.53377e-12
4.11087e-13
7.20616e-11
3.64348e-11
5.08724e-11
4.69435e-11
8.89824e-11
1.27983e-12
-3.51466e-13
-5.60673e-13
-1.90189e-13
-3.77266e-12
-1.5922e-11
-2.12424e-11
-2.29633e-11
-2.43708e-11
-2.39593e-11
-1.15732e-11
1.28207e-11
2.75142e-11
1.15361e-11
-8.85755e-12
-1.85672e-11
-2.121e-11
-2.46319e-11
-3.24363e-11
-1.69147e-11
-1.3977e-12
5.02332e-12
5.56519e-12
-6.82636e-12
-1.81772e-11
-2.28154e-11
-2.35957e-11
-2.44464e-11
-2.38905e-11
-1.01671e-11
1.45981e-11
2.16903e-11
-2.67869e-12
-1.42471e-11
-1.23132e-11
-1.15312e-11
-1.71285e-11
-3.06854e-11
-1.82288e-11
-2.84914e-12
4.5317e-12
2.47826e-12
-1.06967e-11
-1.98589e-11
-2.28379e-11
-2.41143e-11
-2.47231e-11
-2.38215e-11
-8.01115e-12
1.67925e-11
1.77235e-11
-4.71204e-12
-5.13895e-12
-1.35827e-13
-7.68903e-13
-8.19521e-12
-2.393e-11
-1.95651e-11
-5.70694e-12
3.54089e-12
-4.56837e-12
-1.45912e-11
-1.90616e-11
-1.98405e-11
-2.26739e-11
-2.42164e-11
-2.35748e-11
-5.56489e-12
1.88533e-11
1.5291e-11
-1.8404e-12
4.10305e-12
9.74879e-12
9.47266e-12
2.08322e-12
-1.62684e-11
-2.25094e-11
-9.75219e-12
1.69042e-12
-2.92104e-12
-1.63336e-11
-1.36123e-11
-1.30264e-11
-1.86987e-11
-2.23782e-11
-2.27906e-11
-3.18701e-12
2.07347e-11
1.48358e-11
2.80107e-12
9.71198e-12
1.40857e-11
1.55508e-11
1.1276e-11
-7.54821e-12
-2.65221e-11
-1.31123e-11
-5.7265e-13
-4.32799e-12
-1.4119e-11
-4.03447e-12
-5.02085e-12
-1.4108e-11
-1.97753e-11
-2.08991e-11
-8.22994e-13
2.24301e-11
1.51364e-11
2.22942e-12
3.9907e-12
5.77803e-12
1.00397e-11
1.23252e-11
6.5906e-13
-2.68779e-11
-1.48222e-11
-2.09097e-12
-6.32126e-12
-7.98559e-12
5.1005e-12
-6.65304e-13
-1.00755e-11
-1.72254e-11
-1.79543e-11
1.73153e-12
2.38159e-11
1.44562e-11
-7.39826e-12
-1.23821e-11
-1.17884e-11
-5.60576e-12
2.15026e-12
4.93856e-12
-1.93843e-11
-1.50301e-11
-2.27761e-12
-2.64422e-12
-9.10454e-13
1.06465e-11
2.39754e-12
-6.35627e-12
-1.35198e-11
-1.29431e-11
5.33912e-12
2.45785e-11
1.26015e-11
-1.91685e-11
-2.54571e-11
-2.34048e-11
-1.69777e-11
-1.07749e-11
3.98466e-12
-7.65452e-12
-1.94994e-11
-1.20276e-11
-2.11332e-11
5.8807e-12
1.52388e-11
4.58886e-12
-3.79833e-12
-9.85163e-12
-8.52517e-12
7.35798e-12
2.50117e-11
1.03648e-11
-2.42694e-11
-2.69323e-11
-2.43522e-11
-1.74134e-11
-1.43111e-11
2.59825e-12
9.34169e-12
-6.65138e-12
-1.49942e-12
8.82761e-13
1.1423e-11
2.04065e-11
1.07643e-11
1.20883e-12
-4.2608e-12
-1.69805e-13
1.59268e-11
2.44535e-11
8.48175e-12
-2.34543e-11
-2.31281e-11
-2.07859e-11
-1.56426e-11
-1.00988e-11
8.51732e-12
1.72443e-11
4.96446e-12
1.12566e-11
1.77961e-11
1.50119e-11
2.43812e-11
2.04381e-11
1.28579e-11
7.03589e-12
9.03534e-12
1.77915e-11
2.35607e-11
6.70728e-12
-2.23557e-11
-2.07029e-11
-1.68749e-11
-1.61393e-11
-7.8834e-12
2.36079e-11
4.12307e-11
2.51938e-11
1.64307e-11
1.70376e-11
1.65113e-11
2.31593e-11
2.35266e-11
2.16328e-11
1.73136e-11
1.56982e-11
1.89203e-11
2.26827e-11
4.64245e-12
-2.19707e-11
-1.9959e-11
-1.79443e-11
-1.65196e-11
-1.4546e-11
3.76825e-12
2.33404e-11
1.51591e-11
-1.79702e-12
-9.97512e-13
1.71088e-11
2.01585e-11
1.99682e-11
2.11192e-11
2.00885e-11
1.87741e-11
2.08217e-11
2.16709e-11
1.74764e-12
-2.16338e-11
-1.84914e-11
-1.77291e-11
-1.64771e-11
-1.80291e-11
-1.85423e-11
-7.45907e-12
-3.29521e-12
-1.48826e-13
1.34417e-11
1.74654e-11
1.99146e-11
1.80431e-11
1.84419e-11
1.93214e-11
2.05843e-11
2.26916e-11
1.95241e-11
-2.95117e-12
-2.09431e-11
-1.7703e-11
-1.79751e-11
-1.66253e-11
-1.73481e-11
-3.14233e-11
-2.81464e-11
-1.32811e-11
2.11447e-12
1.05595e-12
1.70063e-11
2.09045e-11
1.95536e-11
1.91565e-11
2.00411e-11
2.21411e-11
2.29181e-11
1.49604e-11
-1.06641e-11
-1.91184e-11
-1.74634e-11
-1.80811e-11
-1.70214e-11
-1.47699e-11
-2.77025e-11
-3.68429e-11
-2.58118e-11
-3.33558e-12
-3.30973e-11
1.56189e-11
2.05986e-11
2.07546e-11
2.08614e-11
2.13065e-11
2.21934e-11
2.01502e-11
7.75557e-12
-1.81546e-11
-1.71283e-11
-1.75719e-11
-1.80803e-11
-1.72779e-11
-1.46732e-11
-1.68269e-11
-2.66258e-11
-2.9829e-11
-2.08939e-11
-2.26183e-11
1.35262e-11
1.8833e-11
1.98888e-11
2.07446e-11
2.09335e-11
2.00516e-11
1.46099e-11
-1.01862e-12
-1.94297e-11
-1.62865e-11
-1.76566e-11
-1.80727e-11
-1.73507e-11
-1.47213e-11
-1.29034e-11
-1.50149e-11
-1.85821e-11
-1.64497e-11
-1.247e-11
1.05816e-11
1.60207e-11
1.75728e-11
1.8907e-11
1.87771e-11
1.58915e-11
6.56943e-12
-1.10532e-11
-1.68208e-11
-1.63597e-11
-1.76138e-11
-1.80757e-11
-1.73616e-11
-1.46514e-11
-1.26489e-11
-1.09282e-11
-1.07455e-11
-9.87799e-12
-2.55461e-12
7.88374e-12
1.37544e-11
1.55248e-11
1.67801e-11
1.54597e-11
9.54258e-12
-3.21978e-12
-1.69546e-11
-1.52655e-11
-1.64757e-11
-1.75532e-11
-1.80778e-11
-1.7343e-11
-1.44814e-11
-1.18904e-11
-1.01506e-11
-8.78004e-12
-7.77826e-12
-3.91647e-12
-9.10648e-13
5.76387e-12
8.48347e-12
9.65552e-12
7.02694e-12
-7.08265e-13
-1.16572e-11
-1.53151e-11
-1.52555e-11
-1.64195e-11
-1.75275e-11
-1.80779e-11
-1.73111e-11
-1.4284e-11
-1.10492e-11
-9.53862e-12
-7.99683e-12
-7.11588e-12
-3.95266e-12
1.57192e-12
5.88669e-12
1.36524e-12
1.43093e-12
8.73797e-12
1.85066e-12
1.32152e-12
1.13425e-12
2.04233e-11
9.27893e-12
1.34488e-11
1.73168e-11
-3.63575e-12
-4.56114e-12
-1.51133e-11
-2.26839e-12
-2.28708e-12
-5.20075e-12
-8.09682e-13
-3.93126e-13
-2.2813e-13
9.39293e-14
1.02236e-13
1.34978e-13
1.85072e-13
3.04199e-13
2.38711e-13
3.63575e-13
3.45896e-13
2.99465e-13
2.29416e-13
1.17532e-13
-6.71181e-14
-3.09596e-13
-5.40584e-13
-6.21368e-13
-4.78544e-13
-2.02566e-13
-8.96083e-14
1.33323e-13
-7.59606e-12
-1.28137e-12
-6.05457e-13
4.08522e-13
-1.72086e-12
-7.47816e-13
-3.26186e-13
1.67845e-14
-8.56906e-12
9.89593e-13
-4.62775e-12
-1.55943e-11
-3.02292e-12
-2.55345e-12
-1.9635e-12
-4.06868e-12
7.39921e-13
1.97969e-12
2.7803e-12
1.33134e-11
-1.43326e-13
3.4612e-14
1.513e-13
4.15624e-13
5.25198e-13
4.27397e-13
1.95834e-13
-4.61277e-14
-2.45979e-13
-3.98299e-13
-4.95624e-13
-5.72662e-13
-6.18126e-13
-6.86113e-12
-6.10885e-13
-5.10105e-13
-4.81289e-13
-4.53987e-13
-4.87385e-13
-1.56793e-13
-2.06386e-12
-2.07439e-12
-1.63333e-11
-4.29264e-12
-5.06155e-12
-2.95311e-11
-5.99359e-12
-5.60954e-12
-6.78636e-12
3.53377e-12
-4.11087e-13
-7.20616e-11
-3.64348e-11
-5.08724e-11
-4.69435e-11
-8.89824e-11
-1.27983e-12
3.51466e-13
5.60673e-13
1.90189e-13
3.77266e-12
1.5922e-11
2.12424e-11
2.29633e-11
2.43708e-11
2.39593e-11
1.15732e-11
-1.28207e-11
-2.75142e-11
-1.15361e-11
8.85755e-12
1.85672e-11
2.121e-11
2.46319e-11
3.24363e-11
1.69147e-11
1.3977e-12
-5.02332e-12
-5.56519e-12
6.82636e-12
1.81772e-11
2.28154e-11
2.35957e-11
2.44464e-11
2.38905e-11
1.01671e-11
-1.45981e-11
-2.16903e-11
2.67869e-12
1.42471e-11
1.23132e-11
1.15312e-11
1.71285e-11
3.06854e-11
1.82288e-11
2.84914e-12
-4.5317e-12
-2.47826e-12
1.06967e-11
1.98589e-11
2.28379e-11
2.41143e-11
2.47231e-11
2.38215e-11
8.01115e-12
-1.67925e-11
-1.77235e-11
4.71204e-12
5.13895e-12
1.35827e-13
7.68903e-13
8.19521e-12
2.393e-11
1.95651e-11
5.70694e-12
-3.54089e-12
4.56837e-12
1.45912e-11
1.90616e-11
1.98405e-11
2.26739e-11
2.42164e-11
2.35748e-11
5.56489e-12
-1.88533e-11
-1.5291e-11
1.8404e-12
-4.10305e-12
-9.74879e-12
-9.47266e-12
-2.08322e-12
1.62684e-11
2.25094e-11
9.75219e-12
-1.69042e-12
2.92104e-12
1.63336e-11
1.36123e-11
1.30264e-11
1.86987e-11
2.23782e-11
2.27906e-11
3.18701e-12
-2.07347e-11
-1.48358e-11
-2.80107e-12
-9.71198e-12
-1.40857e-11
-1.55508e-11
-1.1276e-11
7.54821e-12
2.65221e-11
1.31123e-11
5.7265e-13
4.32799e-12
1.4119e-11
4.03447e-12
5.02085e-12
1.4108e-11
1.97753e-11
2.08991e-11
8.22994e-13
-2.24301e-11