/*--------------------------------*- C++ -*----------------------------------*\
| =========                 |                                                 |
| \\      /  F ield         | OpenFOAM: The Open Source CFD Toolbox           |
|  \\    /   O peration     | Version:  4.1                                   |
|   \\  /    A nd           | Web:      www.OpenFOAM.org                      |
|    \\/     M anipulation  |                                                 |
\*---------------------------------------------------------------------------*/
FoamFile
{
    version     2.0;
    format      ascii;
    class       volVectorField;
    location    "15";
    object      U;
}
// * * * * * * * * * * * * * * * * * * * * * * * * * * * * * * * * * * * * * //

dimensions      [0 1 -1 0 0 0 0];

internalField   nonuniform List<vector> 
1280
(
(-1.13598e-15 -3.95237 -2.59435)
(-1.0005e-15 -2.98994 -2.793)
(-9.88027e-16 -2.9798 -1.9822)
(-1.0341e-15 -2.41917 -2.27498)
(-1.4851e-15 -2.16216 -3.24622)
(-1.33743e-15 -1.38983 -2.12906)
(-9.55026e-16 -1.16307 -2.29485)
(-7.17669e-16 -0.721425 -2.33085)
(-3.77632e-15 0.0333206 -3.32037)
(-7.00689e-15 0.307742 -2.29653)
(-9.71912e-15 0.788033 -2.04295)
(-2.46076e-15 1.83711 -3.10223)
(2.62746e-15 1.81727 -2.40651)
(3.29622e-15 2.28153 -2.37479)
(2.59515e-15 3.34956 -3.07584)
(1.63931e-15 3.06721 -2.41946)
(1.65281e-15 3.60061 -2.58297)
(8.83918e-16 4.501 -3.46362)
(5.71646e-16 4.06718 -2.23781)
(2.84102e-16 4.276 -3.64232)
(9.3592e-16 4.36876 -1.65124)
(-3.85351e-16 4.73311 4.51255)
(-4.19429e-16 4.45349 7.67236)
(-5.53754e-16 4.83187 8.84695)
(-7.59268e-16 5.07406 8.98109)
(-1.248e-15 5.62283 8.88259)
(-5.03211e-17 4.47436 6.60325)
(-1.49159e-15 8.02365 11.7887)
(-1.41906e-15 8.16287 12.0795)
(-1.22858e-15 8.31468 12.4592)
(-9.41192e-16 8.40426 12.9093)
(-4.82181e-16 8.44517 13.3028)
(2.75356e-16 8.44499 13.5056)
(1.27014e-15 8.38512 13.4495)
(2.21778e-15 8.32234 13.2086)
(2.5492e-15 8.20763 13.0344)
(1.96326e-15 8.16432 13.1954)
(8.31041e-16 7.98561 13.6436)
(3.67624e-16 8.05697 14.4378)
(-5.46967e-16 7.8 13.7779)
(1.3222e-15 10.0334 13.9615)
(1.02921e-15 5.11927 8.76269)
(4.86311e-16 3.94325 8.15917)
(-2.68217e-16 3.21878 7.57424)
(7.78854e-16 2.20303 6.76135)
(6.00655e-16 1.22496 3.96769)
(2.61997e-16 0.761602 3.92771)
(-1.34815e-17 0.207216 4.25899)
(3.07384e-15 -0.208881 1.48294)
(-7.94854e-16 -0.0753568 1.3411)
(3.71707e-15 -0.52882 1.40347)
(2.71442e-15 -0.625837 3.10401)
(2.42805e-15 -1.67275 4.74911)
(2.05097e-15 -2.2664 4.64602)
(1.57711e-15 -2.70791 4.81821)
(7.08213e-16 -4.00048 7.83098)
(-5.72568e-16 -4.70894 7.8183)
(-1.59011e-15 -5.62277 8.55114)
(-2.23317e-15 -6.85465 9.21654)
(-2.47086e-15 -11.1719 14.2212)
(5.88005e-16 -8.12849 13.723)
(-1.41998e-16 -8.42284 14.3065)
(-6.20719e-16 -8.33565 13.4431)
(-1.70512e-15 -8.5187 12.9215)
(-2.15466e-15 -8.55311 12.6944)
(-1.75342e-15 -8.66132 12.8162)
(-8.0342e-16 -8.71452 13.0291)
(1.89242e-16 -8.76736 13.0849)
(1.00914e-15 -8.7631 12.9027)
(1.63405e-15 -8.71511 12.5411)
(2.03333e-15 -8.6237 12.1263)
(2.34938e-15 -8.49855 11.7752)
(2.5359e-15 -8.32024 11.5155)
(1.44635e-15 -4.55985 6.43933)
(2.5062e-15 -5.0128 10.0113)
(2.09274e-15 -4.50144 10.1477)
(1.97452e-15 -4.26846 10.0058)
(1.86251e-15 -3.93019 8.76119)
(1.99953e-15 -4.25374 5.39522)
(6.43254e-16 -3.91493 -1.11917)
(1.47673e-15 -3.87292 -3.5886)
(1.49911e-15 -3.7157 -2.27311)
(2.776e-15 -3.725 -3.58083)
(3.10218e-15 -2.96544 -2.00335)
(3.65785e-15 -2.50434 -2.2523)
(5.35613e-15 -2.64251 -2.95897)
(4.46843e-15 -1.85154 -1.87238)
(4.19089e-15 -1.50119 -2.12239)
(1.7015e-15 -1.46934 -2.95916)
(-2.98256e-15 -0.659327 -1.88072)
(-1.31718e-16 -0.328737 -2.14788)
(1.35666e-14 -0.293506 -3.0507)
(2.66656e-14 0.56 -2.10193)
(3.67642e-14 0.833705 -1.91093)
(3.39249e-14 1.0771 -1.45299)
(1.51234e-14 1.55536 -2.67257)
(9.24902e-16 1.91289 -2.23757)
(-2.53995e-16 2.47818 -2.04558)
(-2.53196e-16 2.37308 -2.98638)
(-1.37444e-16 3.49824 -3.15843)
(-4.19184e-16 1.38918 -0.434155)
(-1.76911e-15 1.01347 -0.789132)
(-2.36027e-15 -0.760936 -0.918754)
(-2.55148e-15 -1.92093 -0.913472)
(-2.70786e-15 -2.46515 -0.70023)
(-2.66215e-15 -2.41894 -0.227013)
(-1.28592e-15 -2.52245 0.556945)
(1.42452e-15 -3.24938 1.16552)
(3.05713e-15 1.48074 0.844462)
(1.28179e-15 5.40204 1.3852)
(-9.84173e-16 6.44446 3.32307)
(-2.06303e-15 7.02344 4.53569)
(-2.35667e-15 6.77962 4.34201)
(-2.73688e-15 2.48406 2.26289)
(-3.60403e-15 -4.49727 -1.60155)
(-1.87942e-15 -7.71011 -3.78301)
(-1.553e-16 -7.4558 -4.72656)
(5.58147e-16 -5.26465 -4.60288)
(6.18354e-16 -1.76198 -4.38426)
(-7.58485e-16 1.52072 -1.00727)
(-2.01969e-15 1.20039 -1.45385)
(-2.53504e-15 -0.662892 -1.47967)
(-2.62175e-15 -2.047 -1.1063)
(-2.71627e-15 -2.69283 -0.672815)
(-2.6545e-15 -2.74373 -0.0912496)
(-1.12968e-15 -2.88922 0.809201)
(1.62201e-15 -3.2393 1.52751)
(2.41004e-15 1.17357 1.61371)
(-2.97633e-16 4.48016 3.62952)
(-1.58301e-15 5.41129 6.13812)
(-1.36814e-15 6.73454 7.2161)
(-1.28124e-15 7.51584 6.85657)
(-1.90316e-15 4.67667 4.49445)
(-3.40949e-15 -3.08426 -1.47335)
(-2.02542e-15 -7.02318 -3.40085)
(-3.16571e-16 -7.26191 -4.31794)
(5.03522e-16 -5.38032 -4.36295)
(2.75362e-16 -2.23765 -3.98044)
(-1.18852e-15 1.61341 -1.17704)
(-2.20655e-15 1.24204 -1.74042)
(-2.53754e-15 -0.831784 -1.72806)
(-2.67936e-15 -2.24509 -1.29508)
(-2.74702e-15 -2.93011 -0.703622)
(-2.64683e-15 -3.07607 0.0801578)
(-8.90127e-16 -3.28102 1.16464)
(1.86583e-15 -3.47495 2.07948)
(1.96928e-15 0.190024 2.73369)
(-5.2356e-16 3.58459 5.46825)
(-5.70994e-16 4.86441 7.49802)
(-1.50919e-17 6.65843 8.44216)
(-8.54337e-17 7.96472 8.39773)
(-9.10579e-16 6.19286 6.52174)
(-2.65889e-15 -1.37711 0.0236116)
(-2.1739e-15 -6.35839 -2.65885)
(-6.34105e-16 -6.99317 -3.56248)
(3.93432e-16 -5.42476 -3.84788)
(-5.07597e-16 -2.53264 -3.52384)
(-1.62124e-15 1.7773 -1.28616)
(-2.11795e-15 1.37143 -1.82141)
(-2.2045e-15 -0.914131 -1.72227)
(-2.51932e-15 -2.42487 -1.25395)
(-2.69071e-15 -3.22445 -0.666934)
(-2.61943e-15 -3.47478 0.252652)
(-6.18321e-16 -3.71861 1.54602)
(2.09481e-15 -3.80588 2.62894)
(1.699e-15 -0.693646 3.86224)
(-2.04489e-16 2.65557 6.93042)
(4.55895e-16 4.25179 8.46428)
(1.0832e-15 6.41929 9.36784)
(1.05252e-15 8.31364 9.77347)
(2.31469e-16 7.68259 8.57103)
(-1.8076e-15 0.650944 3.13323)
(-2.50104e-15 -5.60514 -1.69663)
(-1.08358e-15 -6.67611 -2.34503)
(1.87825e-16 -5.39914 -2.91957)
(-3.2456e-16 -2.67692 -3.04961)
(-1.81484e-15 1.90696 -1.23026)
(-1.51248e-15 1.4216 -1.48916)
(-1.44738e-15 -0.969894 -1.32675)
(-2.07763e-15 -2.59179 -0.875481)
(-2.48647e-15 -3.53016 -0.398361)
(-2.53229e-15 -3.94023 0.487555)
(-3.54112e-16 -4.23932 1.92582)
(2.30385e-15 -4.28146 3.15086)
(1.64842e-15 -1.65174 4.76804)
(3.11229e-16 1.85364 7.57233)
(1.07911e-15 3.8238 8.22996)
(1.56508e-15 6.14153 8.77843)
(1.72787e-15 8.34779 9.68301)
(1.25289e-15 8.76386 9.65075)
(-8.3869e-16 3.10693 5.86765)
(-2.9469e-15 -4.56207 -0.56668)
(-1.45692e-15 -6.36235 -0.691698)
(-6.36278e-17 -5.15624 -1.71859)
(-4.80888e-16 -2.33966 -2.43785)
(-1.56878e-15 1.97457 -0.920664)
(-4.48274e-16 1.38031 -0.651565)
(-5.57872e-16 -1.29086 -0.552523)
(-1.56756e-15 -2.7359 -0.202952)
(-2.19725e-15 -3.78772 0.152713)
(-2.32213e-15 -4.40364 0.887851)
(-9.14438e-17 -4.80217 2.30826)
(2.49223e-15 -4.85114 3.60887)
(1.68183e-15 -2.56023 5.28552)
(2.47713e-16 1.40033 7.15737)
(4.43411e-16 3.69512 6.61519)
(6.42003e-16 5.85278 6.40658)
(1.11552e-15 7.97405 7.54899)
(1.36946e-15 9.19458 8.97355)
(7.32289e-17 5.06672 7.726)
(-2.98643e-15 -3.23913 1.57865)
(-1.64691e-15 -5.98022 1.07701)
(-2.3233e-16 -4.84291 -0.136322)
(-7.02362e-16 -2.30854 -2.08)
(-8.87288e-16 1.91997 -0.257168)
(5.66722e-16 1.12917 0.532525)
(-7.39226e-17 -1.37309 0.660066)
(-1.11951e-15 -2.78289 0.803828)
(-1.91393e-15 -3.97779 0.992808)
(-1.99492e-15 -4.80259 1.51879)
(1.92392e-16 -5.34249 2.72876)
(2.64621e-15 -5.40743 3.99613)
(1.60625e-15 -3.22416 5.48649)
(-8.22029e-16 1.42107 6.1599)
(-1.37578e-15 4.0102 4.69042)
(-1.30982e-15 5.77066 3.69931)
(-6.22862e-16 7.27743 4.4483)
(2.38917e-16 8.74311 6.71127)
(5.48728e-16 6.03953 8.46879)
(-2.15381e-15 -2.32052 4.48324)
(-1.67001e-15 -5.52033 2.56516)
(-2.53068e-16 -3.87048 1.45666)
(-2.93803e-16 0.149805 -1.71145)
(-1.01162e-16 1.80751 0.778172)
(1.18294e-15 0.835518 1.78103)
(2.66393e-16 -1.38459 1.99463)
(-7.06252e-16 -2.79853 2.00644)
(-1.5022e-15 -4.08472 2.02093)
(-1.43812e-15 -5.09766 2.32475)
(5.93236e-16 -5.80505 3.21027)
(2.73094e-15 -5.89375 4.34269)
(1.40017e-15 -3.59041 5.58861)
(-2.12984e-15 1.80017 5.46979)
(-2.82857e-15 4.60577 3.74475)
(-2.60053e-15 5.98318 2.63427)
(-1.88641e-15 6.72546 2.90122)
(-1.19721e-15 7.70851 4.63186)
(4.4274e-16 6.00324 8.40886)
(-8.50502e-16 -1.07964 6.88195)
(-2.16661e-15 -4.65971 3.30142)
(-1.3364e-15 -3.56636 3.01982)
(-2.34814e-15 -5.13231 5.73806)
(6.53411e-16 1.62086 1.89584)
(1.6932e-15 0.516879 2.97034)
(5.09873e-16 -1.42848 3.18858)
(-4.22037e-16 -2.77823 3.16551)
(-1.09463e-15 -4.11443 3.06175)
(-9.47241e-16 -5.27991 3.17691)
(8.17554e-16 -6.16213 3.74114)
(2.77908e-15 -6.29728 4.66966)
(1.15164e-15 -3.75729 5.65825)
(-2.6966e-15 2.24057 5.03444)
(-2.99247e-15 5.13722 3.31915)
(-2.7058e-15 6.13527 2.713)
(-1.93482e-15 6.42751 3.20538)
(-1.59012e-15 6.66846 4.30207)
(2.88695e-16 5.037 8.62377)
(1.03797e-15 -0.189128 9.87179)
(-7.39042e-16 -3.8513 6.86493)
(-1.66602e-16 -4.54566 7.80775)
(9.80846e-17 -4.67934 8.86087)
(1.26922e-15 1.41175 3.01349)
(2.26739e-15 0.230903 4.03204)
(1.19604e-15 -1.45068 4.19905)
(1.34314e-16 -2.73408 4.16456)
(-4.73422e-16 -4.09366 3.99783)
(-1.88672e-17 -5.3698 3.98344)
(1.9039e-15 -6.41509 4.29993)
(2.71705e-15 -6.60686 4.99524)
(9.42417e-16 -3.76001 5.65776)
(-2.60603e-15 2.73279 4.41988)
(-2.56979e-15 5.55066 2.6514)
(-2.37789e-15 6.03037 2.80527)
(-1.73807e-15 6.04147 3.59586)
(-1.12208e-15 5.65713 4.93147)
(8.12564e-16 3.49216 9.2976)
(1.91603e-15 -0.723618 12.5652)
(5.51607e-16 -3.88749 11.6595)
(1.25073e-15 -4.90741 10.8827)
(1.97735e-15 -3.60402 7.87377)
(1.66799e-15 1.20518 4.06801)
(2.70902e-15 -0.00201041 4.94414)
(2.2709e-15 -1.45849 5.05573)
(1.42866e-15 -2.68254 5.02089)
(7.81765e-16 -4.04516 4.82178)
(1.00393e-15 -5.39892 4.73164)
(1.86287e-15 -6.58036 4.88338)
(2.61785e-15 -6.8012 5.34513)
(7.45254e-16 -3.52956 5.54221)
(-2.48396e-15 3.36889 3.49771)
(-2.30033e-15 5.83653 1.87605)
(-1.87499e-15 5.73676 2.82043)
(-1.79326e-15 5.53704 3.47951)
(-8.75934e-16 4.55487 5.2097)
(2.62309e-15 2.10729 9.47102)
(4.58119e-15 -0.997837 11.7693)
(2.79931e-15 -3.07546 12.0631)
(1.82564e-15 -2.97807 10.3942)
(1.89307e-15 -1.1762 5.40632)
(1.83459e-15 1.01981 5.03869)
(2.57326e-15 -0.181905 5.72468)
(2.61406e-15 -1.46748 5.80237)
(2.40365e-15 -2.62914 5.79472)
(1.92373e-15 -3.98059 5.59119)
(1.74424e-15 -5.38999 5.46679)
(2.10226e-15 -6.6721 5.51596)
(2.5203e-15 -6.84988 5.74469)
(5.15828e-16 -2.98882 5.26855)
(-2.44118e-15 4.09252 2.28951)
(-2.21767e-15 5.9101 1.50159)
(-1.99381e-15 5.35893 2.79251)
(-1.83551e-15 5.03722 3.11574)
(-1.61622e-15 3.26239 4.87483)
(4.18694e-16 0.716118 9.74759)
(2.59337e-15 -1.62036 11.9232)
(1.68434e-15 -3.33953 12.545)
(-1.99669e-16 -3.31574 12.2094)
(-1.10835e-16 -0.985033 9.78264)
(1.90097e-15 0.871592 5.94369)
(2.23984e-15 -0.294874 6.4107)
(2.21869e-15 -1.48184 6.45885)
(2.34658e-15 -2.58977 6.52383)
(2.23205e-15 -3.91975 6.36472)
(2.08602e-15 -5.36543 6.25124)
(2.31352e-15 -6.69849 6.23899)
(2.40788e-15 -6.70676 6.20091)
(1.94182e-16 -2.0795 4.75473)
(-2.40376e-15 4.74478 0.855488)
(-2.0546e-15 5.73519 1.70788)
(-1.9699e-15 5.05281 2.50086)
(-1.83079e-15 4.68146 2.63736)
(-2.00323e-15 1.95851 3.62342)
(-2.06025e-15 -0.731919 7.99309)
(-8.28785e-16 -2.27231 10.437)
(-3.66134e-16 -3.25767 11.4092)
(-1.65362e-17 -1.3776 12.098)
(1.49353e-15 4.97679 12.6845)
(1.9406e-15 0.758389 6.83728)
(2.21274e-15 -0.367311 7.0846)
(2.00479e-15 -1.52022 7.03132)
(2.0491e-15 -2.58113 7.18386)
(2.14682e-15 -3.87505 7.13732)
(2.28714e-15 -5.33445 7.10926)
(2.52129e-15 -6.64832 7.07328)
(2.16934e-15 -6.29621 6.65531)
(-3.27908e-16 -0.744737 3.84244)
(-2.32701e-15 5.1639 -0.228932)
(-1.96699e-15 5.35972 2.06931)
(-1.99724e-15 4.93939 1.94327)
(-1.84725e-15 4.53754 2.09559)
(-1.92757e-15 1.23439 2.05951)
(-3.49148e-15 -1.88411 4.28044)
(-3.12738e-15 -2.85799 6.66351)
(-1.47568e-15 -3.71227 7.28967)
(2.34941e-16 -3.73173 6.19524)
(1.17328e-16 -2.15554 2.35615)
(1.88959e-15 0.703332 7.75799)
(2.32272e-15 -0.325046 7.92878)
(2.17263e-15 -1.53077 7.66909)
(2.1285e-15 -2.62395 7.8181)
(2.22678e-15 -3.90357 7.89283)
(2.46012e-15 -5.34581 8.01729)
(2.54646e-15 -6.50519 7.96772)
(1.66227e-15 -5.48097 6.88228)
(-1.1849e-15 0.981275 2.20369)
(-2.12427e-15 5.29064 -0.101844)
(-1.94037e-15 4.97666 2.03952)
(-2.00902e-15 4.99341 1.3834)
(-1.89127e-15 4.50135 1.49962)
(-1.6411e-15 1.3689 1.05372)
(-3.07806e-15 -2.69022 0.446543)
(-4.09366e-15 -3.53836 1.99699)
(-2.86798e-15 -3.33426 2.8247)
(-3.7062e-16 -1.14469 2.15107)
(-3.67747e-15 2.68893 -1.82517)
(1.73543e-15 0.578443 8.6704)
(2.28874e-15 -0.303427 9.00726)
(2.30606e-15 -1.50193 8.57017)
(2.31794e-15 -2.64878 8.62311)
(2.36739e-15 -3.94649 8.76966)
(2.46593e-15 -5.35703 9.04903)
(2.23891e-15 -6.168 8.84339)
(8.6173e-16 -4.11049 6.52246)
(-2.01717e-15 2.25991 0.147766)
(-1.90314e-15 5.08574 0.916373)
(-1.95243e-15 4.84732 1.59768)
(-2.00892e-15 5.11855 0.971772)
(-1.91977e-15 4.53969 0.879095)
(-1.63035e-15 1.96984 0.325109)
(-1.86965e-15 -2.31508 -1.68275)
(-2.95842e-15 -3.77769 -2.41211)
(-3.31433e-15 -3.43312 -2.55639)
(-2.32154e-15 -0.928329 -3.27009)
(-2.51315e-15 1.78513 -4.26179)
(1.50292e-15 0.511255 9.41704)
(2.09256e-15 -0.195123 10.3119)
(2.20987e-15 -1.3944 9.96554)
(2.30495e-15 -2.6993 9.98928)
(2.32594e-15 -4.10855 10.1311)
(2.22795e-15 -5.41246 10.3185)
(1.62332e-15 -5.50103 9.39763)
(-1.1318e-16 -2.17182 5.26146)
(-2.15886e-15 3.06254 -0.436308)
(-1.80961e-15 4.69415 1.56574)
(-1.96185e-15 4.99482 1.13504)
(-2.00808e-15 5.25872 0.648916)
(-1.92786e-15 4.68118 0.321928)
(-1.6357e-15 2.54582 -0.343766)
(-1.43371e-15 -1.52056 -2.25795)
(-1.66832e-15 -3.245 -4.24476)
(-2.06468e-15 -3.07478 -5.58173)
(-1.82775e-15 -1.07285 -6.4877)
(-1.38556e-15 1.64061 -5.43075)
(1.17573e-15 0.0356749 9.76575)
(1.78007e-15 -0.515708 11.1672)
(1.95253e-15 -1.43685 11.2634)
(2.10078e-15 -2.68753 11.5641)
(2.08635e-15 -4.03277 11.7289)
(1.76572e-15 -5.00478 11.3722)
(7.29936e-16 -4.09564 8.83573)
(-1.22813e-15 0.148894 2.79864)
(-1.86898e-15 3.50516 0.707613)
(-1.81774e-15 4.50161 1.4932)
(-1.95709e-15 5.21058 0.878873)
(-2.00841e-15 5.40341 0.359028)
(-1.92907e-15 4.86385 -0.132208)
(-1.62793e-15 3.01471 -0.867265)
(-1.40543e-15 -0.707714 -2.45705)
(-1.21424e-15 -2.49967 -4.39542)
(-1.19394e-15 -2.4853 -5.85114)
(-1.09755e-15 -1.0073 -6.63023)
(-2.83845e-16 0.620348 -5.27316)
(8.75971e-16 -0.0536185 9.81275)
(1.52826e-15 -0.623759 11.8902)
(1.72498e-15 -1.54493 12.4879)
(1.86446e-15 -2.91882 13.0178)
(1.71774e-15 -4.1676 12.7947)
(1.06029e-15 -4.40383 11.0286)
(-3.57754e-16 -2.26557 6.47956)
(-1.88384e-15 1.43073 1.02291)
(-1.69617e-15 3.49111 1.63538)
(-1.83063e-15 4.65634 1.26516)
(-1.95036e-15 5.44781 0.725833)
(-2.00865e-15 5.61612 0.118623)
(-1.927e-15 5.0852 -0.473925)
(-1.60905e-15 3.36125 -1.21301)
(-1.32116e-15 -0.181471 -2.40113)
(-1.12784e-15 -1.98394 -4.04822)
(-9.7556e-16 -2.12467 -5.11595)
(-8.64251e-16 -1.19734 -5.72227)
(-4.35163e-16 0.0502187 -4.79179)
(-1.01183e-16 -0.992899 8.05984)
(6.4043e-16 -1.69843 10.451)
(9.42608e-16 -2.01051 11.5063)
(1.07284e-15 -2.77147 12.0033)
(7.80771e-16 -3.00003 11.1433)
(-7.86961e-17 -2.11012 8.30877)
(-1.29524e-15 0.105168 3.83234)
(-1.70168e-15 1.9658 1.97329)
(-1.69506e-15 3.55105 1.76014)
(-1.82439e-15 4.93232 1.20744)
(-1.9475e-15 5.78252 0.607542)
(-2.00866e-15 5.99177 -0.0461628)
(-1.92346e-15 5.52466 -0.690025)
(-1.58711e-15 3.92115 -1.37011)
(-1.22769e-15 0.702131 -2.10029)
(-1.05985e-15 -1.44551 -3.19139)
(-8.88536e-16 -1.74846 -3.84295)
(-7.90653e-16 -1.09414 -4.21781)
(-4.39184e-16 -0.508828 -4.21394)
(-3.23828e-16 6.36414 10.9349)
(-4.36523e-15 16.6834 29.0713)
(-2.97854e-15 18.4578 30.6564)
(-3.12803e-15 16.9394 27.6088)
(-3.64377e-15 15.3736 24.2552)
(-4.7802e-15 14.1057 21.6358)
(-4.82183e-15 13.0284 19.4521)
(-4.85154e-15 12.2018 17.8805)
(-4.99958e-15 11.4901 16.4874)
(-5.23341e-15 10.7693 15.1575)
(-5.5234e-15 10.0179 13.8424)
(-5.88989e-15 9.23268 12.5302)
(-6.10225e-15 8.4159 11.2121)
(-5.94672e-15 7.57921 9.90911)
(-5.71601e-15 6.80863 8.73964)
(-6.2912e-15 6.26854 8.04673)
(-8.03625e-15 6.20484 8.22774)
(-1.0161e-14 6.55463 9.36779)
(-1.08034e-14 6.8915 10.444)
(-1.27792e-14 4.94181 8.29895)
(-1.9193e-16 5.09016 7.59893)
(-2.92163e-15 15.3349 27.232)
(-1.60414e-15 17.0417 29.5405)
(-2.13667e-15 15.2788 26.4674)
(-2.46077e-15 13.5931 23.3008)
(-3.69744e-15 12.3218 20.8962)
(-3.26878e-15 11.434 19.177)
(-3.32003e-15 10.7373 17.7157)
(-3.54121e-15 10.0949 16.4073)
(-4.25917e-15 9.49286 15.1643)
(-4.80845e-15 8.90182 13.9673)
(-5.37304e-15 8.32099 12.8042)
(-6.31569e-15 7.74344 11.6636)
(-7.23762e-15 7.1611 10.5156)
(-7.71246e-15 6.55454 9.34892)
(-8.37542e-15 5.97281 8.21979)
(-9.16433e-15 5.41891 7.32751)
(-9.87368e-15 4.99212 6.71513)
(-9.89166e-15 4.25539 6.25847)
(-1.32962e-14 2.34517 3.15318)
(-8.80087e-17 4.67708 7.6846)
(-7.67035e-16 15.2878 27.2994)
(-5.05067e-16 17.9175 31.6263)
(-5.36596e-16 16.5725 28.868)
(-5.35013e-16 14.8018 25.5088)
(-1.67155e-15 13.521 22.8971)
(-1.144e-15 12.564 20.976)
(-9.55353e-16 11.8119 19.3643)
(-1.09731e-15 11.0984 17.871)
(-1.21838e-15 10.3847 16.4029)
(-1.41769e-15 9.64961 14.9481)
(-1.58015e-15 8.89787 13.5162)
(-1.83551e-15 8.12958 12.1217)
(-2.06887e-15 7.35729 10.7646)
(-2.59569e-15 6.5581 9.44051)
(-3.11938e-15 5.75593 8.10351)
(-3.85613e-15 4.86366 6.78094)
(-4.70588e-15 3.99895 5.38878)
(-5.46577e-15 2.67778 3.86552)
(-7.85187e-15 0.846647 0.288814)
(5.70189e-17 2.73128 4.04127)
(2.31754e-16 14.9501 25.8004)
(1.40139e-16 18.6705 32.3565)
(1.70553e-16 17.578 30.1405)
(1.73114e-16 15.6774 26.6831)
(-8.53371e-16 14.328 24.0008)
(-8.89819e-16 13.3561 22.0668)
(-8.96175e-16 12.5745 20.4061)
(-1.09654e-15 11.8012 18.8041)
(-1.05737e-15 10.9912 17.1669)
(-1.37252e-15 10.1291 15.4908)
(-1.54021e-15 9.2249 13.7965)
(-1.64755e-15 8.28666 12.1152)
(-1.76662e-15 7.3324 10.461)
(-2.20606e-15 6.34021 8.84606)
(-2.69482e-15 5.33434 7.22254)
(-3.47045e-15 4.18927 5.56307)
(-4.84506e-15 3.01195 3.65096)
(-6.49053e-15 1.07009 1.22218)
(-1.97224e-14 -0.41795 -2.40014)
(-6.9868e-18 4.69302 7.51039)
(-5.9535e-17 16.3013 26.1199)
(-3.94382e-17 20.0657 32.7605)
(-4.27511e-17 19.1108 31.0152)
(-5.82068e-17 17.224 27.8226)
(2.23804e-16 15.9377 25.3261)
(2.75517e-16 14.9948 23.4848)
(2.71516e-16 14.1942 21.7985)
(2.99916e-16 13.3323 20.0702)
(3.2646e-16 12.3829 18.2288)
(3.66746e-16 11.3425 16.3005)
(4.15577e-16 10.2347 14.3185)
(4.8598e-16 9.06813 12.3155)
(5.55455e-16 7.85663 10.3035)
(6.8331e-16 6.57648 8.29719)
(8.39054e-16 5.24987 6.25583)
(1.06178e-15 3.73858 4.16945)
(1.32814e-15 2.19344 1.79471)
(2.42387e-15 -0.246888 -0.921129)
(-1.11444e-14 -1.65063 -4.90536)
(2.73244e-19 9.97891 16.8923)
(1.31228e-17 19.6849 30.9148)
(1.16923e-17 20.4856 32.7722)
(1.11355e-17 18.9425 30.1756)
(1.9031e-17 17.3067 27.8314)
(-3.85912e-17 16.4163 26.068)
(-6.82971e-17 15.5553 24.593)
(-7.28604e-17 14.7002 22.8982)
(-7.74874e-17 13.6019 20.9778)
(-8.51261e-17 12.3823 18.8475)
(-9.48122e-17 11.0382 16.6221)
(-1.08625e-16 9.6248 14.3232)
(-1.27498e-16 8.12236 11.9666)
(-1.49856e-16 6.53433 9.53954)
(-1.80903e-16 4.83478 7.04901)
(-2.23555e-16 3.05344 4.46822)
(-2.82906e-16 1.07899 1.8482)
(-2.24818e-16 -0.867897 -1.3136)
(1.4147e-15 -3.23854 -3.81457)
(-4.45865e-15 -3.08269 -7.68169)
(5.72173e-20 14.341 25.2886)
(-3.03426e-18 20.6631 33.7279)
(-3.29986e-18 17.9328 30.7297)
(-2.99738e-18 16.3974 27.9387)
(-5.79616e-18 15.195 26.8488)
(8.47598e-18 14.6006 25.7051)
(1.75078e-17 13.4941 24.3764)
(1.89604e-17 12.2889 22.3964)
(2.01763e-17 10.6757 20.089)
(2.29841e-17 9.04571 17.5795)
(2.74309e-17 7.32527 15.063)
(3.43879e-17 5.59029 12.4613)
(4.18634e-17 3.76549 9.76003)
(4.06699e-17 1.89348 6.94818)
(8.8723e-18 0.0158441 4.08771)
(-7.66707e-17 -1.70165 1.41212)
(-1.25448e-16 -2.97586 -0.760594)
(1.34197e-16 -4.03055 -2.88802)
(6.19515e-16 -4.59092 -4.53855)
(8.11087e-17 -2.18553 -2.86564)
(-2.23452e-20 14.8803 26.8026)
(7.95595e-19 17.8124 30.5715)
(8.93613e-19 14.8545 27.2215)
(1.04704e-18 14.0776 25.5252)
(9.46905e-19 12.8926 24.6272)
(-3.06919e-18 12.0429 23.356)
(-5.10691e-18 10.6533 21.8641)
(-5.45709e-18 9.14419 19.7548)
(-5.9204e-18 7.3326 17.378)
(-6.09881e-18 5.55191 14.8834)
(-5.2491e-18 3.73641 12.4103)
(-3.36723e-18 1.94558 9.91154)
(-3.04731e-18 0.188541 7.44884)
(-1.09557e-17 -1.37078 5.17148)
(-2.91207e-17 -2.50855 3.34246)
(-3.70778e-17 -2.91876 2.2993)
(5.4488e-18 -2.16555 2.64097)
(1.11973e-16 0.24775 5.03661)
(1.97567e-16 3.68689 8.75582)
(1.07634e-16 4.25968 9.16044)
(-3.80818e-21 12.9652 23.32)
(-1.89772e-19 16.6755 29.0633)
(-2.19816e-19 14.4073 26.062)
(-2.37311e-19 13.2333 23.3825)
(4.5911e-21 11.8096 21.9282)
(9.41222e-19 10.9009 20.2964)
(1.20953e-18 9.55633 18.7419)
(1.10126e-18 8.27205 16.7598)
(1.01957e-18 6.76249 14.5947)
(1.07763e-18 5.3129 12.2546)
(1.13843e-18 3.87889 9.91072)
(7.7068e-20 2.60932 7.68594)
(-4.02873e-18 1.65535 5.90157)
(-1.17475e-17 1.30721 5.02657)
(-1.98888e-17 1.87503 5.59124)
(-2.28214e-17 3.50227 7.8345)
(-1.9189e-17 5.89954 11.2736)
(-1.74785e-17 8.22743 14.6166)
(-2.85715e-17 9.51574 15.8858)
(-3.44369e-17 6.68977 12.3627)
(1.06605e-21 12.1048 21.5697)
(3.79475e-20 17.598 29.7953)
(4.32268e-20 15.2101 26.7407)
(4.40257e-20 14.008 23.2582)
(-5.2752e-21 12.5122 21.5455)
(-1.96892e-19 11.8678 19.6518)
(-2.38636e-19 10.7924 18.1513)
(-1.95176e-19 10.0379 16.5117)
(-1.4607e-19 9.17941 14.9991)
(-7.34052e-20 8.46252 13.4677)
(7.72615e-20 7.78727 11.9766)
(3.43128e-19 7.215 10.5297)
(5.74971e-19 6.76154 9.19647)
(4.27533e-19 6.48052 8.14424)
(-1.72398e-19 6.48665 7.65019)
(-2.23477e-19 6.77727 7.96859)
(1.67525e-18 7.32275 9.03456)
(5.39786e-18 7.6276 10.3776)
(8.68264e-18 7.30917 10.7697)
(8.59163e-18 4.92872 8.15855)
(-1.9882e-22 12.4364 22.1143)
(-6.36745e-21 18.4606 30.702)
(-6.73532e-21 15.895 27.8127)
(-6.03726e-21 14.8083 24.3122)
(2.8182e-21 13.3654 22.6296)
(3.2256e-20 12.8029 20.8109)
(3.59139e-20 11.8855 19.3203)
(2.35206e-20 11.1889 17.7436)
(9.98913e-21 10.4582 16.2845)
(-8.93011e-21 9.79701 14.8906)
(-5.10309e-20 9.17464 13.5611)
(-1.20129e-19 8.57772 12.2784)
(-1.59436e-19 7.99736 11.0214)
(-6.3557e-20 7.41928 9.79012)
(2.46547e-19 6.84239 8.62173)
(7.43537e-19 6.2907 7.62641)
(1.25269e-18 5.75419 6.93125)
(1.35482e-18 5.21729 6.44537)
(4.1232e-19 4.18243 5.71759)
(-1.48451e-18 2.12094 2.52976)
(6.20731e-23 13.3316 23.7873)
(7.91705e-22 19.2272 31.4068)
(5.9991e-22 16.1693 28.362)
(3.36976e-22 15.4049 25.0013)
(-8.47148e-22 13.8874 23.4895)
(-4.25977e-21 13.4062 21.639)
(-3.8143e-21 12.4369 20.173)
(-1.04596e-21 11.7351 18.5609)
(1.49637e-21 10.9486 17.052)
(4.21277e-21 10.211 15.5545)
(9.92711e-21 9.47805 14.097)
(1.86106e-20 8.74876 12.6744)
(1.88504e-20 8.01144 11.2853)
(-9.56131e-21 7.25732 9.91652)
(-7.87994e-20 6.45086 8.55288)
(-1.81243e-19 5.59731 7.15391)
(-3.07377e-19 4.59201 5.71588)
(-4.80456e-19 3.5087 4.08438)
(-7.03651e-19 1.7524 2.09477)
(-9.27707e-19 0.111084 -1.48826)
(-2.32518e-23 14.7248 26.7648)
(-3.94704e-23 19.8708 31.8372)
(7.63119e-23 16.2084 28.8897)
(1.54366e-22 16.1148 25.8396)
(2.29526e-22 14.3991 24.5863)
(2.73737e-22 14.1269 22.6509)
(-4.36947e-22 13.0558 21.2543)
(-1.51571e-21 12.4625 19.63)
(-2.27493e-21 11.6936 18.1726)
(-2.3616e-21 11.0158 16.6614)
(-1.78483e-21 10.2856 15.1257)
(-1.25806e-22 9.49427 13.5005)
(4.27433e-21 8.59035 11.771)
(1.29093e-20 7.56291 9.93257)
(2.38286e-20 6.3924 8.01729)
(3.03334e-20 5.13124 6.02266)
(2.77044e-20 3.67164 3.96713)
(1.75915e-20 2.13096 1.57669)
(1.09659e-20 -0.245312 -1.04932)
(-5.11274e-19 -1.48261 -4.75391)
(7.07593e-24 16.0232 29.9659)
(-1.59139e-23 19.9345 31.5323)
(-4.46419e-23 15.9756 29.3651)
(-3.75587e-23 16.635 26.677)
(-5.74006e-23 14.5785 25.6919)
(-2.48607e-22 14.6001 23.7192)
(-6.93009e-22 13.3677 22.5187)
(-1.19112e-21 12.9721 20.973)
(-9.31481e-22 12.2035 19.6929)
(1.18846e-21 11.6237 18.2497)
(5.53223e-21 10.8471 16.6718)
(1.08785e-20 9.88446 14.7545)
(1.51708e-20 8.62855 12.5038)
(1.75238e-20 7.15983 10.0261)
(1.88443e-20 5.54712 7.47077)
(2.05134e-20 3.85608 4.83128)
(2.64204e-20 1.98502 2.22326)
(3.21882e-20 0.15594 -0.873777)
(9.44504e-20 -2.47006 -3.73617)
(-2.29278e-19 -2.91549 -7.41448)
(-2.28632e-24 16.493 31.7255)
(7.15228e-24 19.1695 30.2783)
(3.22193e-23 15.3916 29.307)
(5.76435e-23 16.3459 26.7805)
(-4.93656e-23 13.983 25.9459)
(-5.50974e-22 14.0821 24.012)
(-1.47066e-21 12.6449 22.9978)
(-2.01822e-21 12.2894 21.5729)
(-4.11029e-22 11.3596 20.4731)
(4.99319e-21 10.6793 19.0416)
(1.35962e-20 9.54326 17.2356)
(2.18762e-20 8.06017 14.6803)
(2.67861e-20 6.1845 11.617)
(2.96336e-20 4.30852 8.53415)
(3.11634e-20 2.55278 5.58525)
(2.8645e-20 0.628144 2.45898)
(3.19851e-20 -0.951385 0.0625548)
(5.31376e-20 -1.56896 -1.72494)
(6.0953e-20 -4.56734 -5.4028)
(-6.47294e-20 -3.70886 -7.35484)
(-1.89004e-25 15.9443 31.2695)
(-9.2251e-25 18.3515 28.9307)
(1.75351e-23 14.7169 28.3962)
(3.81679e-23 15.5175 25.8572)
(-9.23932e-23 13.225 24.9586)
(-6.26846e-22 13.0393 23.1196)
(-1.5297e-21 11.6688 22.0181)
(-1.88995e-21 11.0409 20.6617)
(1.15797e-22 10.0378 19.4984)
(5.69548e-21 9.09291 18.034)
(1.31305e-20 7.74677 16.0843)
(1.82205e-20 6.0915 13.4627)
(1.95422e-20 4.32804 10.6126)
(2.11085e-20 2.81869 8.04201)
(2.55925e-20 1.42756 5.54769)
(3.50934e-20 -0.233527 2.50019)
(5.81766e-20 -2.16847 -1.06769)
(8.36899e-20 -3.40797 -3.70085)
(7.50112e-20 -3.49 -3.80287)
(2.18653e-20 -0.678184 0.148996)
(-5.71656e-25 15.0374 30.344)
(2.46202e-24 18.1019 27.8632)
(2.14041e-23 13.9509 27.3792)
(3.72064e-23 14.9813 24.7148)
(-7.65293e-23 12.6781 23.7747)
(-5.1776e-22 12.4339 21.9018)
(-1.29313e-21 11.1524 20.6653)
(-1.88697e-21 10.4567 19.2303)
(-1.28609e-21 9.52139 17.9619)
(1.10169e-21 8.65933 16.5625)
(4.25967e-21 7.64824 14.9671)
(6.01218e-21 6.5854 13.1127)
(5.73096e-21 5.58945 11.2081)
(6.29092e-21 4.76099 9.42662)
(1.23575e-20 3.96987 7.62094)
(2.61707e-20 3.14037 5.6173)
(4.51948e-20 2.42849 3.66952)
(8.44911e-20 3.02241 3.25962)
(1.04722e-19 -0.258895 -1.09893)
(9.28535e-20 2.99422 5.19228)
(-3.03813e-25 13.9673 30.2757)
(2.06409e-24 18.061 27.2323)
(1.60814e-23 13.2332 27.137)
(2.72052e-23 14.3027 24.6419)
(-5.12463e-23 12.1579 23.6695)
(-3.61733e-22 11.7544 21.977)
(-9.72042e-22 10.6349 20.7078)
(-1.72086e-21 9.93124 19.3265)
(-2.19795e-21 9.1339 18.0705)
(-2.0253e-21 8.45264 16.8215)
(-1.23965e-21 7.78965 15.5932)
(-3.70463e-22 7.17559 14.32)
(4.79288e-24 6.57819 12.9635)
(-1.78964e-22 5.9788 11.5004)
(-3.41139e-22 5.3434 9.90466)
(7.56952e-22 4.57913 7.97801)
(5.98718e-21 3.30835 5.27351)
(1.25959e-20 1.61659 1.58435)
(5.22929e-20 -0.0932094 -1.54694)
(8.73999e-20 -0.653266 -2.96177)
(-9.33788e-26 11.1677 28.5508)
(1.27836e-24 17.1136 24.9944)
(7.96181e-24 12.0558 25.3812)
(1.46203e-23 12.7573 23.6354)
(-2.02663e-23 11.0291 22.8674)
(-1.81953e-22 10.3966 21.7499)
(-5.54255e-22 9.43225 20.8091)
(-1.12704e-21 8.69681 19.8392)
(-1.71296e-21 7.97388 18.9202)
(-1.99972e-21 7.3426 18.0219)
(-1.78774e-21 6.76101 17.1395)
(-1.24507e-21 6.22133 16.2334)
(-8.22897e-22 5.69729 15.2627)
(-7.6746e-22 5.17121 14.1823)
(-5.64642e-22 4.60465 12.9032)
(1.5525e-21 3.86377 11.1973)
(9.09734e-21 2.68159 8.5565)
(2.59672e-20 0.788442 4.29896)
(4.77804e-20 -1.60425 -1.15979)
(4.90373e-20 -2.27339 -4.37886)
(1.26413e-26 2.62098 17.0678)
(5.184e-25 8.0433 13.712)
(1.6445e-24 5.17851 14.5609)
(1.78303e-24 4.98051 14.1764)
(-5.48003e-24 4.06161 14.1407)
(-3.30802e-23 3.49832 13.974)
(-9.70459e-23 2.92829 13.8243)
(-2.06534e-22 2.46296 13.6415)
(-3.5056e-22 2.05782 13.4355)
(-4.88186e-22 1.72161 13.1982)
(-5.55078e-22 1.44977 12.9316)
(-5.03506e-22 1.2471 12.6398)
(-3.61728e-22 1.11747 12.3287)
(-2.52913e-22 1.0727 11.998)
(-3.33109e-22 1.12916 11.6423)
(-6.91685e-22 1.25458 11.2745)
(-1.25328e-21 1.47568 10.8347)
(-1.64572e-21 2.09027 9.96718)
(-1.26794e-21 2.32866 8.55059)
(-2.26436e-22 -0.223818 6.37355)
(-1.24053e-26 -2.621 17.0679)
(-5.05523e-25 -8.04327 13.7121)
(-1.60105e-24 -5.17848 14.561)
(-1.72535e-24 -4.98044 14.1766)
(5.3812e-24 -4.06152 14.1409)
(3.23338e-23 -3.4982 13.9742)
(9.47588e-23 -2.92812 13.8245)
(2.01585e-22 -2.46275 13.6417)
(3.42086e-22 -2.05755 13.4357)
(4.76227e-22 -1.72128 13.1984)
(5.41037e-22 -1.4494 12.9318)
(4.89896e-22 -1.24672 12.6401)
(3.51066e-22 -1.1171 12.329)
(2.46627e-22 -1.07235 11.9984)
(3.31486e-22 -1.12884 11.6428)
(6.94142e-22 -1.25429 11.2751)
(1.25742e-21 -1.47548 10.8355)
(1.64688e-21 -2.09037 9.96801)
(1.26395e-21 -2.32908 8.55135)
(2.2354e-22 0.223594 6.37418)
(9.09903e-26 -11.1679 28.5512)
(-1.24243e-24 -17.1137 24.9948)
(-7.75282e-24 -12.056 25.3816)
(-1.42349e-23 -12.7575 23.6359)
(1.98824e-23 -11.0293 22.8679)
(1.77923e-22 -10.3968 21.7505)
(5.41747e-22 -9.43251 20.8097)
(1.10119e-21 -8.6971 19.8399)
(1.67256e-21 -7.97419 18.9208)
(1.95013e-21 -7.34288 18.0225)
(1.7396e-21 -6.76121 17.1399)
(1.2081e-21 -6.22141 16.2337)
(8.00496e-22 -5.69726 15.2629)
(7.56595e-22 -5.1711 14.1825)
(5.57652e-22 -4.6044 12.9034)
(-1.56679e-21 -3.86304 11.197)
(-9.11838e-21 -2.67979 8.55429)
(-2.59312e-20 -0.785052 4.29404)
(-4.75163e-20 1.60808 -1.16496)
(-4.84567e-20 2.27457 -4.38017)
(2.96955e-25 -13.9674 30.2761)
(-2.00715e-24 -18.0615 27.2325)
(-1.56835e-23 -13.2335 27.1373)
(-2.65481e-23 -14.3033 24.642)
(5.00738e-23 -12.1585 23.6696)
(3.53398e-22 -11.7553 21.9769)
(9.49733e-22 -10.6358 20.7077)
(1.6815e-21 -9.9324 19.3261)
(2.14784e-21 -9.13528 18.0701)
(1.97935e-21 -8.45437 16.8211)
(1.21232e-21 -7.79182 15.5931)
(3.65895e-22 -7.17822 14.3202)
(7.34219e-24 -6.58116 12.9641)
(1.99687e-22 -5.98194 11.5014)
(3.59757e-22 -5.34648 9.90566)
(-7.67425e-22 -4.58167 7.97803)
(-6.05808e-21 -3.30964 5.27139)
(-1.27632e-20 -1.61229 1.57687)
(-5.13142e-20 0.0958918 -1.54902)
(-8.59849e-20 0.655893 -2.96804)
(5.55708e-25 -15.0368 30.3428)