/*--------------------------------*- C++ -*----------------------------------*\
| =========                 |                                                 |
| \\      /  F ield         | OpenFOAM: The Open Source CFD Toolbox           |
|  \\    /   O peration     | Version:  4.1                                   |
|   \\  /    A nd           | Web:      www.OpenFOAM.org                      |
|    \\/     M anipulation  |                                                 |
\*---------------------------------------------------------------------------*/
FoamFile
{
    version     2.0;
    format      ascii;
    class       surfaceScalarField;
    location    "23";
    object      phi;
}
// * * * * * * * * * * * * * * * * * * * * * * * * * * * * * * * * * * * * * //

dimensions      [0 3 -1 0 0 0 0];

internalField   nonuniform List<scalar> 
2360
(
33181.9
38936.1
-5754.24
38936.1
38936.1
46298.5
-7362.34
46298.5
46298.5
46298.5
57208.2
-10909.8
57208.2
57208.2
72766.1
-15557.8
72766.1
72766.1
96063.2
-23297.1
96063.2
96063.2
128077
-32013.5
128077
128077
134684
148677
164938
180876
195702
209314
183237
38939
195004
205814
215698
224692
232836
240176
246763
252640
257836
262361
266189
269252
271138
145204
125934
145204
145204
145204
39069.2
106135
39069.2
39069.1
39069.1
6681.83
32387.3
6681.83
6681.82
-17614.2
24296
-17614.2
-17614.2
-17614.3
-111908
94293.4
-111908
-111908
-111908
-246895
134987
-242131
-235803
-228754
-221381
-213781
-205968
-197902
-189543
-180870
-171889
-162612
-153025
-143073
-169677
36975.3
-158921
-147352
-134876
-121755
-109231
-101870
-101870
-101870
-53786.2
-48083.9
-53786.2
-53786.2
-17600.8
-36185.4
-17600.8
-17600.8
11607.6
-29208.4
11607.6
11607.6
35585.5
-23977.9
35585.5
35585.5
35585.5
58494
-22908.5
58494
58494
83057.8
-24563.8
-32154.4
80130.6
-30158
121047
-27340.6
125699
-24434.1
127155
-20433
108331
-5778.09
29551.6
5899.7
-97090.5
3216.45
-117815
-4883.91
-97400
-486.547
-34843.5
7490.69
66109.2
12720.7
114769
18864.1
126781
25339.1
122471
29942.5
106025
31870.8
78409.8
31680.4
46301.1
30464.8
16752.8
-24509.3
-32594.4
79900.6
-30777.9
119230
-28345.6
123266
-26067.9
124877
-20940.4
103204
-955.422
9566.54
3559.95
-101606
-7827.15
-106428
-16649.6
-88577.5
-6847.13
-44646
4806.95
54455.2
9526.49
110049
16065.2
120242
23633.2
114903
29660.4
99997.7
32772.7
75297.5
33255.8
45818
29726.3
20282.3
-17691.4
-33121.9
79669
-31515
117623
-29644.6
121396
-28083.7
123316
-21861.7
96981.7
-2329.67
-9965.47
-6931.44
-97004.1
-20641.6
-92718.2
-27081.5
-82137.6
-17306
-54421.4
-1128.21
38277.4
4477.91
104443
10889.4
113831
20114.1
105678
28130.7
91981.1
33218.8
70209.3
34877.9
44159
31098
24062.2
-10571.4
-33480.3
79596.8
-32332.5
116476
-31266.4
120330
-30470.2
122520
-23294.1
89805.7
-10696.2
-22563.4
-22149.7
-85550.5
-35617.3
-79250.6
-41575.5
-76179.4
-34758.2
-61238.8
-13062.1
16581.3
-3280.17
94661.2
3291.54
107259
14076.5
94892.9
24424.9
81632.8
32066.1
62568.1
35307.6
40917.5
33025
26344.7
-6754.78
-33303.8
80024.6
-33217.8
116390
-33224
120336
-33306.6
122603
-27750.6
84249.7
-26371.4
-23942.7
-41358.7
-70563.2
-52898.2
-67711.1
-58323.2
-70754.4
-58626.6
-60935.4
-37266
-4779.25
-16945.8
74341
-6490.39
96803.4
5292.6
83109.9
18176.2
68749.2
29272.3
51472
34541
35648.7
35233.5
25652.3
-7706.67
-32385.4
81254.7
-34003.4
118007
-35405.8
121738
-36715.6
123913
-36476.3
84010.5
-45894.4
-14524.6
-62851.6
-53606
-72752.3
-57810.3
-76413.6
-67093.1
-76440
-60909
-63886.7
-17332.6
-40451.6
50906
-21698.2
78050
-8138.97
69550.7
7222.45
53387.8
23067.3
35627.2
30844.9
27871.1
38464
18033.2
-17326.6
-30950.6
83279
-34490.7
121548
-37571
124819
-40527.4
126869
-46820.1
90303.2
-65478.5
4133.74
-84904.6
-34179.9
-97029.3
-45685.6
-103657
-60465.5
-102447
-62119.2
-90691.3
-29088.1
-67866
28080.7
-45921.3
56105.3
-29837.3
53466.6
-13180.9
36731.3
5038.68
17407.7
23994
8915.76
28183.1
13844
47831.8
-29777
85688.2
-34704.5
126475
-39417.4
129531
-44263.8
131716
-55831.5
101871
-80353.2
28655.4
-102113
-12420.3
-118134
-29664.5
-131814
-46785.2
-137283
-56650.1
-125715
-40656
-100425
2790.68
-77465.1
33145
-61406.8
37408.3
-52210.8
27535.4
-53152.7
18349.5
-66959.5
22722.6
-97029.9
43914.4
85789.1
-30131
87780.8
-35150.2
131494
-40810
135191
-47052.6
137958
-60556
115374
-85899.2
53998.6
-108256
9936.35
-125571
-12348.9
-142533
-29823.2
-155737
-43446.5
-155930
-40462.6
-139143
-13997
-118131
12132.9
-104334
23611.2
-100059
23261.2
-105002
23291.8
-115350
33070.5
-118732
47297.2
61350.1
-33322.7
88737.9
-36742.3
134914
-42060.3
140509
-48800
144698
-62512.9
129087
-87652.9
79138.6
-111059
33342.6
-127662
4253.52
-142548
-14937
-156201
-29792.8
-163046
-33618.1
-157509
-19534.4
-143740
-1635.88
-129921
9791.97
-120693
14033.8
-115678
18276.6
-107984
25376.4
-82499.5
21812.9
3146.63
-40020
87905
-40412.8
135307
-43897.6
143994
-49856.9
150657
-62244.4
141475
-85073.9
101968
-106812
55081.1
-119526
16966.7
-127613
-6849.42
-134353
-23053
-138349
-29621.6
-136904
-20979.7
-131857
-6683.39
-125799
3733.89
-120920
9155.08
-117293
14650.3
-108312
16394.7
-83528.4
-2970.4
-47994.5
-49867.4
85126.1
-46735.5
132175
-47294.3
144553
-51099.3
154462
-60783.6
151159
-79108.6
120293
-94513.8
70486.3
-97471
19923.9
-95387.6
-8932.83
-94541.7
-23898.9
-94515.9
-29647.3
-93781.8
-21713.9
-94154.2
-6311.03
-99541.3
9121.05
-110969
20583.2
-125466
29147.1
-136013
26941.4
-133017
-5966.48
-74876.1
-61729.4
80704.3
-55497.7
125943
-52779.4
141835
-53356.2
155039
-59222.6
157025
-71348.1
132419
-76750.9
75889.1
-67591.8
10764.8
-59108.2
-17416.4
-57453.5
-25553.7
-58080.9
-29019.9
-58760.1
-21034.6
-59321.3
-5749.91
-62852.4
12652.2
-73773.4
31504.2
-89056.6
44430.2
-98210.2
36095.1
-104503
326.446
-53445.6
-74648
74746.3
-65628.7
116924
-59844.4
136050
-57050.7
152245
-58844
158819
-63565
137140
-56464.9
68789
-38348.6
-7351.57
-31149.1
-24615.9
-32903.6
-23799.1
-33778.2
-28145.3
-33610.7
-21202.2
-33886.6
-5473.97
-34008.1
12773.7
-33736.7
31232.8
-31081.8
41775.3
-15899.1
20912.4
4357.27
-19929.9
-10149.3
-90639.4
67502
-79070.8
105355
-70676.8
127656
-65076.1
146645
-62152.9
155896
-56290.7
131277
-31676.8
44175.1
-8895.2
-30133.2
-7997.57
-25513.5
-14132.3
-17664.4
-17298.5
-24979.1
-16843.3
-21657.3
-15771.7
-6545.63
-14301.6
11303.5
-8231.43
25162.7
1591.42
31952.5
9129.83
13374
18354.3
-29154.3
-23808.5
-113263
61279.5
-101373
93465.3
-90189.4
116473
-79975.4
136431
-68078.8
143999
-47396.8
110595
-13340.8
10119.1
3512.14
-46986.1
3644.35
-25645.7
374.755
-14394.9
-3650.23
-20954.1
-4084.7
-21222.9
-3266.41
-7363.92
-2719.96
10757.1
3104.58
19338.2
11897.7
23159.3
16181.7
9090.02
18755.9
-31728.5
-28349.7
-134013
57689.2
-123204
82656
-107843
101112
-89895.3
118483
-65937.1
120041
-31923.1
76581.5
-6927.54
-14876.5
-6214.03
-47699.6
-3125.81
-28734
1604.83
-19125.5
3483.23
-22832.5
3591.26
-21330.9
4281.51
-8054.18
4456.17
10582.4
7526.84
16267.5
14106.2
16579.9
17470.8
5725.44
15309.9
-29567.6
-28597.7
-134102
54349.8
-121898
70452.1
-103199
82412.7
-80733
96016.9
-51240.6
90548.2
-16138.7
41479.6
-4433.12
-26582
-9363.77
-42768.9
-2930.37
-35167.4
3210.18
-25266
5788.19
-25410.5
6045.8
-21588.5
7763.97
-9772.35
8802.63
9543.77
9698.26
15371.9
14260.4
12017.8
16865.1
3120.74
13291.4
-25994
-26216
-109969
45890.6
-93180.3
53663.4
-76644.7
65877.1
-57379.6
76751.8
-32093.5
65262
-10613.8
19999.9
-8052.87
-29143
-9485.2
-41336.6
-3327.64
-41324.9
2739.35
-31333
6046.39
-28717.6
7481.22
-23023.3
9284.67
-11575.8
10778.6
8049.81
11416
14734.5
13887.3
9546.57
14400
2608.03
10837.9
-22431.9
-22740.5
-69214
-52363.7
-41802.2
-30610
-16878.1
-9237.68
-10262.8
-9409.26
-3660.78
3122.75
7230.74
8919.86
9698.94
10371.8
10641.4
11488.2
11167.9
9659.27
3173.32
-9780.1
6715.01
-17534.9
9389.8
-18936.5
11467.5
-18015.3
13293.8
-16652.4
14968.7
-15286.5
16099.3
-13993.1
17078.6
-12746.3
17779.8
-11511.1
18182.4
-10286
18266.6
-9078.54
18014.7
-7891.57
17405.8
-6731.78
16416.5
-5597.16
15026.9
-4487.66
13201
-3369.54
10889.4
-2214.23
7986.87
-925.342
4405.33
518.547
2519.51
5067.93
-14848
7017.4
-19484.4
7157.34
-19076.4
7035.31
-17893.2
7228.48
-16845.5
7722.48
-15780.5
8362.34
-14633
8975.08
-13359
9494.63
-12030.6
9864.2
-10655.6
10035.7
-9250.04
9951.57
-7807.41
9554.46
-6334.65
8808
-4850.68
7725
-3404.65
6355.56
-2000.08
4728.13
-586.792
2810.04
992.749
825.986
2502.61
3345.5
1805.39
-16653.4
905.377
-18584.4
-354.447
-17816.5
-1356.67
-16891
-2173.29
-16028.9
-2892.91
-15060.8
-3601.72
-13924.1
-4319.12
-12641.6
-5053.17
-11296.5
-5816.71
-9891.99
-6624.9
-8441.83
-7490.79
-6941.5
-8420.82
-5404.59
-9377.26
-3894.22
-10230
-2551.86
-10701
-1529.09
-10347.6
-940.195
-8552.69
-802.14
-4957.4
-1092.67
-1611.9
-1612.81
-15040.6
-3636.78
-16560.4
-5429.44
-16023.9
-7170.41
-15150
-9069.86
-14129.5
-11004.8
-13125.8
-12894.7
-12034.3
-14722.5
-10813.8
-16523.3
-9495.67
-18315.3
-8099.97
-20083.3
-6673.9
-21742.6
-5282.2
-23112.3
-4034.86
-23876.2
-3130.35
-23567.8
-2860.24
-21652.7
-3444.14
-17751.1
-4841.83
-11886.5
-6666.71
-5023.2
-7955.94
-6635.1
-2039.17
-13001.4
-3021.86
-15577.7
-4106.34
-14939.4
-5361.63
-13894.7
-6843.22
-12647.9
-8426.96
-11542.1
-9904.59
-10556.6
-11180.4
-9537.99
-12213.5
-8462.56
-12973.1
-7340.41
-13426.6
-6220.36
-13532.8
-5176.01
-13202.8
-4364.82
-12300.3
-4032.87
-10698.2
-4462.26
-8365.57
-5776.8
-5550.07
-7657.33
-2833.12
-9383.65
-986.216
-9802.82
-7621.32
-344.906
-12656.5
48.8493
-15971.4
400.816
-15291.3
645.604
-14139.5
823.953
-12826.2
939.224
-11657.3
1125.38
-10742.8
1490.07
-9902.69
2116.64
-9089.14
3055.66
-8279.43
4320.39
-7485.08
5856.12
-6711.74
7504.89
-6013.6
8975.22
-5503.2
9836.61
-5323.65
9643.45
-5583.64
8175.86
-6189.73
5617.94
-6825.73
2621.22
-6806.1
-5000.1
223.127
-12879.6
1044.83
-16793.1
1765.09
-16011.6
2314.89
-14689.3
2872.98
-13384.3
3471.84
-12256.2
4112.43
-11383.4
4784.05
-10574.3
5508.46
-9813.54
6301.49
-9072.45
7175.39
-8358.98
8124.6
-7660.94
9078.78
-6967.78
9860.81
-6285.23
10194.2
-5657.02
9759.84
-5149.3
8383.04
-4812.94
6082.22
-4524.92
3249.23
-3973.12
-1750.87
673.052
-13552.7
1557.69
-17677.8
2150.14
-16604
2509.06
-15048.2
2911.75
-13787
3372.82
-12717.3
3867.12
-11877.7
4321.07
-11028.3
4729.25
-10221.7
5076.5
-9419.71
5361.07
-8643.56
5587.06
-7886.95
5769.66
-7150.39
5904.75
-6420.33
5938.13
-5690.4
5724.16
-4935.34
5076.2
-4164.97
3831.36
-3280.09
1966.63
-2108.41
215.769
1259.62
-14812.3
2015.78
-18434
2442.68
-17030.9
2740.17
-15345.7
3226.58
-14273.4
3771.45
-13262.2
4363.04
-12469.3
4942.19
-11607.4
5512.37
-10791.9
6022.51
-9929.86
6426.03
-9047.08
6668.72
-8129.64
6714.11
-7195.78
6541.72
-6247.94
6147.01
-5295.69
5515.29
-4303.63
4609.79
-3259.47
3355.4
-2025.7
1707.98
-460.99
1923.74
1846.29
-16658.6
2199.55
-18787.2
2445.28
-17276.7
2845.35
-15745.8
3520.53
-14948.6
4249.4
-13991
5081.95
-13301.8
5966.76
-12492.2
6899.78
-11724.9
7761.16
-10791.2
8459.96
-9745.89
8904.83
-8574.52
9056.92
-7347.87
8886.11
-6077.13
8361.58
-4771.17
7441.39
-3383.44
6078.47
-1896.56
4096.39
-43.6236
2026.57
1608.82
3950.32
1510.58
-18169.2
1028.85
-18305.5
930.233
-17178.1
1144.66
-15960.2
1552
-15355.9
2037.83
-14476.9
2684.05
-13948.1
3437.21
-13245.4
4243.95
-12531.7
4910.03
-11457.3
5304.12
-10140
5336.78
-8607.19
5030.41
-7041.5
4404.84
-5451.56
3461.82
-3828.15
2261.04
-2182.67
987.268
-622.782
-2.81902
946.461
-748.4
2354.4
3201.92
-90.0704
-18079.1
-1191.37
-17204.2
-1909.98
-16459.5
-2538.37
-15331.9
-3116.16
-14778.1
-3664.98
-13928.1
-4145.92
-13467.1
-4582.08
-12809.2
-5022.52
-12091.3
-5562.56
-10917.3
-6272.44
-9430.1
-7166.59
-7713.05
-8200.71
-6007.39
-9300.83
-4351.46
-10346.9
-2782.12
-11063.7
-1465.87
-10937.2
-749.283
-9218.43
-772.267
-5397.31
-1466.71
-2195.4
-999.684
-17079.4
-1872.66
-16331.3
-2785.84
-15546.3
-3883.63
-14234.1
-4990.07
-13671.7
-6267.18
-12651
-7650.31
-12084
-9177.45
-11282.1
-10745.3
-10523.4
-12243.2
-9419.42
-13575.8
-8097.53
-14703.2
-6585.69
-15607.7
-5102.83
-16143.5
-3815.67
-15948.2
-2977.47
-14582.6
-2831.46
-11867.7
-3464.15
-7888.9
-4751.09
-3350.46
-6005.15
-5545.86
-276.831
-16802.6
-366.516
-16241.6
-544.811
-15368
-922.67
-13856.2
-1285.2
-13309.2
-1824.5
-12111.7
-2477.91
-11430.6
-3289.38
-10470.7
-4115.98
-9696.77
-4751.07
-8784.34
-4983.24
-7865.36
-4696.53
-6872.41
-3899.01
-5900.35
-2657.5
-5057.19
-1087.66
-4547.33
593.315
-4512.44
1963.76
-4834.61
2467.79
-5255.13
1678.63
-5215.99
-3867.23
443.065
-17245.7
694.475
-16493
1056.84
-15730.4
1366.26
-14165.7
1698.91
-13641.8
2030.66
-12443.4
2335.52
-11735.5
2640.52
-10775.7
2936.82
-9993.07
3326.32
-9173.85
3891.75
-8430.79
4732.34
-7713.01
5854.05
-7022.07
7123.92
-6327.06
8188.92
-5612.33
8552.61
-4876.14
7873.96
-4155.96
6089.7
-3470.87
3359.16
-2485.45
-508.074
607.766
-17853.4
696.825
-16582.1
1068.03
-16101.6
1467.7
-14565.3
1895.98
-14070.1
2383.53
-12931
2894.04
-12246
3470.43
-11352
4076.99
-10599.6
4712.26
-9809.12
5344.38
-9062.91
5957.29
-8325.92
6531.88
-7596.67
7019.46
-6814.64
7317.19
-5910.07
7215.6
-4774.54
6456.86
-3397.23
4996.04
-2010.05
2779.11
-268.527
2271.03
147.88
-18001.3
-71.4007
-16362.8
-2.97649
-16170
185.296
-14753.6
407.905
-14292.7
766.252
-13289.3
1172.22
-12652
1680.56
-11860.4
2265.46
-11184.5
2942.42
-10486.1
3710.34
-9830.83
4557.18
-9172.75
5435.19
-8474.67
6226.15
-7605.61
6717.32
-6401.25
6593.99
-4651.2
5371.76
-2175.01
2681.4
680.294
950.259
1462.61
3221.29
-1276.66
-16724.7
-2666.58
-14972.9
-3726.51
-15110.1
-4471.92
-14008.2
-5126.22
-13638.4
-5504.87
-12910.7
-5767.59
-12389.3
-5838.14
-11789.8
-5772.74
-11249.9
-5551.83
-10707
-5188.08
-10194.6
-4679.57
-9681.27
-4046.1
-9108.14
-3324.51
-8327.21
-2588.58
-7137.17
-1907.81
-5331.98
-1338.11
-2744.72
-984.489
326.666
-890.677
1368.79
2330.61
-2201.27
-14523.4
-4687.02
-12487.1
-7146.15
-12650.9
-9224.53
-11929.8
-11202.5
-11660.4
-12871.6
-11241.6
-14347.3
-10913.6
-15571.9
-10565.3
-16585.8
-10236.1
-17385.8
-9906.98
-17994.7
-9585.7
-18410.3
-9265.58
-18592.8
-8925.71
-18410.8
-8509.2
-17626.4
-7921.57
-15887.3
-7071.03
-12714
-5918.09
-7936.58
-4450.72
-3699.04
-2868.75
-1368.43
-5423.4
-8810.51
-12361.5
-15191.3
-17751.7
-19893.3
-21706.9
-23172.2
-24308.2
-25115.2
-25600.9
-25766.5
-25592.2
-25001.4
-23823
-21794
-18612.1
-13962.8
-7731.57
-5420.04
14520.1
-8804.14
12484.1
-12352.2
12648.1
-15179.2
11927
-17736.8
11657.7
-19875.7
11238.9
-21686.5
10910.9
-23149.1
10562.6
-24282.5
10233.5
-25087
9904.54
-25570.5
9583.5
-25733.8
9263.33
-25556.2
8922.34
-24959.3
8503.1
-23771.6
7912.32
-21733.2
7061.6
-18547
5913.81
-13907.3
4460.38
-7708.46
2901.12
1391.54
-2203.69
16723.8
-4693.42
14973.9
-7155.94
15110.6
-9238.89
14010
-11221.7
13640.5
-12896.7
12913.8
-14378.8
12393
-15610.7
11794.6
-16632.9
11255.7
-17442.6
10714.2
-18062.4
10203.4
-18489.3
9690.26
-18680.2
9113.28
-18499.9
8322.8
-17706.7
7119.06
-15940.4
5295.4
-12698.9
2672.23
-7916.05
-322.42
-3669.92
-1344.98
-2278.38
-1286.25
18010.1
-2681.34
16369
-3750.03
16179.3
-4504.94
14765
-5170.04
14305.6
-5559.6
13303.4
-5834.35
12667.8
-5916.95
11877.2
-5864.29
11203
-5656.66
10506.6
-5307.62
9854.34
-4815.69
9198.36
-4200.68
8498.28
-3497.65
7619.79
-2775.84
6397.28
-2096.82
4616.41
-1507.67
2083.14
-1142.95
-687.06
-985.102
-1502.78
-3263.48
137.039
17873.1
-97.6319
16603.7
-41.0103
16122.7
136.376
14587.6
347.893
14094.1
696.435
12954.9
1091.9
12272.3
1590.17
11379
2163.82
10629.4
2830.14
9840.33
3589.36
9095.13
4430.99
8356.75
5306.11
7623.18
6093.57
6832.35
6576.47
5914.39
6433.59
4759.31
5162.27
3354.48
2522.51
1952.73
853.437
166.334
-2410.04
618.561
17254.5
700.563
16521.7
1067.26
15756
1456.4
14198.5
1876.94
13673.6
2347.76
12484.1
2843.43
11776.7
3399.42
10823
3988.71
10040.1
4606.01
9223.06
5221.38
8479.79
5815.55
7762.6
6366.77
7071.98
6822.84
6376.3
7083.48
5653.78
6951.93
4890.88
6188.68
4117.75
4782.37
3359.05
2652.29
2296.45
242.244
416.378
16838.1
670.28
16267.8
1038.09
15388.2
1369.08
13867.5
1718.97
13323.7
2074.24
12128.9
2401.37
11449.5
2735.11
10489.3
3062.65
9712.6
3485.44
8800.27
4069.4
7895.83
4891.64
6940.36
5938.84
6024.78
7062.49
5252.63
7920.45
4795.82
8117.3
4694.02
7427.85
4807.2
5768.72
5018.18
3212.71
4852.47
3454.95
-87.3868
16925.5
-183.385
16363.9
-407.727
15612.6
-967.529
14427.3
-1453.75
13810
-2108.37
12783.5
-2761.46
12102.6
-3462.94
11190.8
-4069.08
10318.8
-4442.23
9173.43
-4421.7
7875.3
-3861.31
6379.98
-2778.86
4942.34
-1291.22
3765.01
431.896
3072.71
2056.78
3069.14
3068.77
3795.21
3001.06
5085.9
1774.08
6079.45
5229.04
-514.584
17440.1
-1202.38
17051.6
-2009.77
16420
-3170.46
15588
-4234.83
14874.3
-5523.74
14072.4
-6797.9
13376.8
-8201.98
12594.8
-9621.17
11737.9
-11037.2
10589.5
-12276.3
9114.35
-13242.4
7346.12
-13925.1
5624.97
-14221.8
4061.74
-13806.2
2657.13
-12324.4
1587.36
-9667.3
1138.07
-6099.64
1518.23
-2485.84
2465.63
2743.2
146.697
17293.4
-64.8763
17263.2
-121.333
16476.4
-187.77
15654.5
-202.17
14888.7
-292.237
14162.5
-418.236
13502.8
-700.616
12877.2
-1198.24
12235.6
-1999.21
11390.5
-3072
10187.1
-4428.24
8702.39
-5991.49
7188.21
-7635.51
5705.78
-9190.23
4211.84
-10259.4
2656.55
-10211.4
1090.05
-8505.98
-187.236
-4714.64
-1325.75
-1971.44
1208.16
16085.3
2041.13
16430.2
2982.11
15535.4
3921.27
14715.3
4838.83
13971.2
5711.82
13289.5
6544.55
12670
7299.81
12121.9
7927.29
11608.1
8311.12
11006.6
8291.3
10207
7783.02
9210.66
6873.65
8097.58
5665.2
6914.23
4196.68
5680.35
2497.9
4355.33
679.229
2908.7
-612.538
1104.48
-1003.14
-935.185
-2974.58
1427.51
14657.8
2657.6
15200.2
3739.87
14453.2
4671.04
13784.1
5486.79
13155.4
6222.27
12554
6900.62
11991.7
7554.63
11467.9
8179.97
10982.7
8712.76
10473.8
9108.54
9811.18
9293.39
9025.81
9228.4
8162.57
8897.83
7244.8
8284.37
6293.8
7353.97
5285.73
6055.59
4207.07
4204.46
2955.62
1888.08
1381.19
-1086.49
1017.55
13640.2
1994.06
14223.6
2701.96
13745.3
3216.07
13270
3636.27
12735.2
4041.97
12148.3
4509.9
11523.7
5121.14
10856.7
5754.44
10349.4
6254.24
9973.99
6543.66
9521.74
6633.48
8935.95
6555.87
8240.17
6313.44
7487.2
5889.8
6717.43
5247.46
5928.04
4347.84
5106.69
3154.74
4148.72
1678.89
2857.02
592.401
525.178
13115
1053.3
13695.5
1269.92
13528.6
1349.99
13189.9
1505.53
12579.6
1922.52
11731.3
2709.71
10736.5
3798.72
9767.64
4886.35
9261.78
5790.58
9069.73
6392.4
8919.92
6775.73
8552.59
7013.04
8002.86
7073.21
7427.01
6865.99
6924.66
6271.01
6523.02
5220.68
6157.02
3720.79
5648.61
1908.27
4669.54
2500.68
44.3686
13070.6
-228.878
13968.7
-868.644
14168.4
-1576.63
13897.9
-2010.38
13013.4
-1829.89
11550.7
-955.512
9862.13
221.627
8590.43
1465.44
8017.92
2858.96
7676.15
4488.05
7290.8
6307.48
6733.12
8081.36
6228.97
9430.52
6077.81
9949.95
6405.22
9402.53
7070.42
7837.68
7721.87
5490.14
7996.14
2782.8
7376.88
5283.48
-1340.71
14411.3
-2895.99
15524
-4715.05
15987.4
-6563.38
15746.2
-8248.99
14699
-9497.02
12798.8
-10245.2
10610.3
-10803
9148.16
-11140.9
8355.82
-11053.5
7588.74
-10424.2
6661.49
-9320.51
5629.38
-7812.2
4720.64
-5896.42
4162.02
-3617.25
4126.03
-1262.45
4715.61
604.413
5854.99
1471.81
7128.74
1119.76
7728.91
6403.23
-1776.83
16188.1
-3811.35
17558.5
-5667.82
17843.9
-7477.84
17556.2
-9468.11
16689.2
-11709.3
15040
-14066.9
12967.9
-16304.6
11385.8
-18267.6
10318.8
-19971.1
9292.24
-21472
8162.41
-22757.4
6914.73
-23612.1
5575.4
-23619.9
4169.8
-22320.2
2826.31
-19393.8
1789.2
-14791.9
1253.11
-9103.33
1440.14
-3678.15
2303.73
2725.08
498.61
15689.5
-436.797
18493.9
-893.994
18301.1
-1012.96
17675.2
-1191.52
16867.8
-1813.71
15662.1
-2932.68
14086.9
-4132.65
12585.8
-5150.56
11336.7
-6041.16
10182.8
-6922.02
9043.26
-7881.25
7873.94
-8956.62
6650.76
-10139.6
5352.72
-11308.5
3995.24
-12053.4
2534.04
-11722.5
922.199
-9754.7
-527.629
-5880.22
-1570.76
-3155.14
3360.1
12329.4
4646.29
17207.7
5887.91
17059.4
7514.38
16048.7
9359.32
15022.8
11034
13987.5
12222.6
12898.3
13006.6
11801.7
13571.2
10772.1
13934.1
9819.84
14048.1
8929.29
13848.7
8073.37
13265.1
7234.38
12217.6
6400.18
10639.4
5573.47
8463.88
4709.51
5624.62
3761.45
2528.14
2568.84
249.188
708.186
-2905.95
3288.42
9040.93
5317.95
15178.1
6850.99
15526.4
8395.6
14504.1
10103.3
13315.1
11827.3
12263.4
13388
11337.6
14621.3
10568.3
15488.2
9905.3
15994.9
9313.13
16163.4
8760.8
16013
8223.69
15547.8
7699.63
14747
7200.9
13577.9
6742.61
11986.1
6301.33
9930.74
5816.8
7362.45
5137.12
4173.14
3897.5
1267.19
1679.78
4334.66
6739.99
8767.3
10514
12020.9
12987.6
13603.6
13922.2
13958.4
13738.1
13288.8
12629.2
11764.6
10693.7
9395.2
7838.85
5927.19
3496.21
)
;

boundaryField
{
    outletWall
    {
        type            calculated;
        value           nonuniform List<scalar> 
60
(
83057.8
30410.2
-15537.2
-46110.7
-80338.1
-110628
-128946
-132924
-119999
-74086.5
30446.1
105500
120499
85412.7
-44206.5
-112332
-130062
-128516
-123043
-80764.3
80260.8
118428
137441
137603
119485
97883.7
80606
66151.3
52646.2
40852.9
32365.6
28038.4
27367.8
28926.3
31155.3
32876
33552.5
33353.5
32824.4
32788
-33181.9
-18835.5
-20923.3
2928.37
8699.73
14465
7376.9
-12354.9
-24712.5
-32825.6
-38116.6
-47073.4
-42190.1
-28117.9
12359.5
51530.1
65559.7
55315.6
36813
34843.8
)
;
    }
    fineWalls
    {
        type            calculated;
        value           uniform 0;
    }
    fineFrontAndBack
    {
        type            calculated;
        value           nonuniform List<scalar> 
960
(
2.11798e-14
-8.12671e-13
-2.84714e-13
-1.4136e-13
-1.45551e-12
-1.93709e-13
1.19945e-13
-1.2605e-12
5.17695e-12
2.91606e-12
3.08781e-12
-2.62156e-11
-7.49053e-12
-6.32554e-12
-7.37249e-11
-1.36155e-11
-9.73462e-12
-3.5603e-11
-4.43306e-12
-3.81194e-12
-1.76665e-12
-2.47259e-12
-3.08833e-12
-3.41364e-12
-3.55321e-12
-3.55015e-12
-7.79894e-11
-3.74025e-12
-4.17117e-12
-4.57572e-12
-4.96285e-12
-5.41346e-12
-5.8792e-12
-6.30562e-12
-6.72616e-12
-7.15932e-12
-7.39954e-12
-7.55097e-12
-6.9565e-12
-7.27861e-12
-6.18667e-11
7.5005e-12
1.25129e-11
1.29266e-11
8.48422e-11
7.41766e-12
1.57248e-12
-1.75112e-12
-1.33225e-11
4.10594e-12
1.02855e-11
8.70225e-11
9.79309e-12
6.55111e-12
3.33719e-13
-6.96687e-11
-1.85264e-11
-1.98688e-11
-1.82357e-11
1.04581e-11
8.30016e-12
6.21774e-12
7.46761e-12
7.72924e-12
8.05364e-12
8.10046e-12
7.90878e-12
7.56706e-12
7.25375e-12
7.05762e-12
7.00032e-12
6.96363e-12
6.6892e-12
8.67317e-11
5.92425e-12
5.92399e-12
6.10621e-12
6.24672e-12
5.99843e-12
5.0501e-12
2.42128e-11
2.61957e-11
1.74012e-10
3.60104e-11
3.75983e-11
2.28459e-10
5.25522e-11
5.19423e-11
2.07053e-10
2.23892e-11
5.31416e-12
1.8138e-10
5.83595e-11
6.5024e-11
6.7531e-11
3.14353e-10
4.96205e-11
4.35727e-11
1.90323e-10
3.67019e-11
1.12382e-12
5.2202e-11
8.25579e-11
1.03073e-10
1.22608e-10
1.39579e-10
1.48923e-10
1.28931e-10
9.8232e-11
5.81286e-11
4.02211e-11
4.4246e-11
8.65811e-11
1.35144e-10
1.58902e-10
1.61837e-10
1.61991e-10
1.69774e-10
1.37101e-10
6.84695e-12
5.64004e-11
8.49711e-11
1.04972e-10
1.24502e-10
1.40494e-10
1.28887e-10
7.87663e-11
4.54895e-11
2.47629e-11
2.84753e-11
4.18737e-11
8.41814e-11
1.32214e-10
1.57449e-10
1.62131e-10
1.61416e-10
1.75132e-10
9.89837e-11
1.39273e-11
6.17789e-11
8.78843e-11
1.07505e-10
1.27292e-10
1.38962e-10
9.26896e-11
3.76792e-11
2.45329e-11
2.06534e-11
1.66986e-11
3.43388e-11
8.0661e-11
1.28762e-10
1.55743e-10
1.62639e-10
1.61124e-10
1.76489e-10
1.22853e-10
2.0435e-11
6.85774e-11
9.05448e-11
1.1059e-10
1.30274e-10
1.21973e-10
4.58496e-11
5.64739e-12
1.13489e-11
2.16801e-11
2.23917e-11
2.70225e-11
7.50435e-11
1.24514e-10
1.53141e-10
1.62485e-10
1.61166e-10
1.75915e-10
1.27109e-10
2.53607e-11
7.71875e-11
9.31532e-11
1.14299e-10
1.31342e-10
8.57692e-11
4.6873e-12
-9.41689e-12
1.04451e-11
3.03474e-11
4.57593e-11
3.96103e-11
6.88278e-11
1.18515e-10
1.47752e-10
1.59479e-10
1.59955e-10
1.7594e-10
1.22363e-10
2.78251e-11
8.61594e-11
9.69837e-11
1.18387e-10
1.28758e-10
4.92914e-11
-1.70844e-11
-5.00552e-12
2.23502e-11
4.48635e-11
6.32828e-11
7.36576e-11
8.05429e-11
1.16075e-10
1.43119e-10
1.54832e-10
1.5782e-10
1.77023e-10
1.33416e-10
2.79867e-11
9.23162e-11
1.02683e-10
1.2278e-10
1.24273e-10
3.13288e-11
-1.48917e-11
1.61487e-11
4.84304e-11
7.67635e-11
9.97991e-11
1.25383e-10
1.16224e-10
1.31966e-10
1.48613e-10
1.48063e-10
1.33971e-10
1.82866e-10
1.15118e-10
2.93518e-11
9.34685e-11
1.08843e-10
1.27258e-10
1.18444e-10
3.07646e-11
7.12918e-12
4.31749e-11
7.76487e-11
1.14835e-10
1.56073e-10
1.72275e-10
1.65051e-10
1.63558e-10
1.55613e-10
1.09982e-10
2.6699e-11
-2.62888e-11
-3.89902e-11
3.83539e-11
9.11695e-11
1.12179e-10
1.31757e-10
1.24406e-10
5.91136e-11
3.04636e-11
5.78735e-11
7.84346e-11
1.02875e-10
1.37814e-10
1.74032e-10
1.87066e-10
1.73689e-10
1.43898e-10
9.72113e-11
2.86276e-11
-3.58562e-11
-7.90357e-11
5.9759e-11
9.05701e-11
1.13666e-10
1.38631e-10
1.17481e-10
-1.29055e-11
-7.87512e-11
6.13021e-11
3.13804e-11
4.11182e-11
5.34385e-11
5.66915e-11
3.52772e-11
3.0174e-11
3.60065e-11
1.01516e-10
5.73475e-11
2.64367e-11
2.89852e-11
9.36878e-11
9.77326e-11
1.15403e-10
1.40924e-10
1.11233e-10
1.42454e-11
-5.15308e-12
-4.59717e-11
-8.24304e-11
-8.94617e-11
-7.89734e-11
-5.37932e-11
-2.35248e-11
5.06957e-12
2.85832e-11
5.0363e-11
5.19702e-11
4.8331e-11
3.75638e-11
1.35057e-10
1.16123e-10
1.20449e-10
1.40115e-10
1.15688e-10
4.92722e-11
4.1906e-12
-6.38207e-11
-8.27598e-11
-8.88771e-11
-8.80184e-11
-8.42235e-11
-7.0351e-11
-4.62565e-11
-1.26012e-11
2.14719e-11
5.35636e-11
8.46797e-11
1.10909e-10
1.73425e-10
1.43193e-10
1.32328e-10
1.43189e-10
1.28991e-10
7.98986e-11
1.16518e-11
-4.32518e-11
-4.33025e-11
-4.61507e-11
-4.98837e-11
-6.11452e-11
-6.8354e-11
-5.75222e-11
-2.61026e-11
2.42251e-11
6.27851e-11
3.74985e-11
-3.16741e-11
1.97991e-10
1.71171e-10
1.51825e-10
1.55043e-10
1.4505e-10
9.95268e-11
2.33569e-11
-1.64853e-11
-1.25349e-11
-1.35107e-11
-2.40841e-11
-4.24653e-11
-6.12748e-11
-6.222e-11
-4.41105e-11
-4.3355e-12
2.75146e-11
-9.03532e-12
-7.13709e-11
2.02048e-10
1.91293e-10
1.72452e-10
1.68991e-10
1.52451e-10
1.01968e-10
2.09953e-11
-6.00378e-11
-8.05851e-11
-2.07979e-11
-1.39019e-11
-4.24261e-11
-6.95535e-11
-7.04912e-11
-6.18143e-11
-4.0498e-11
-2.10253e-11
-2.86573e-11
-2.03143e-11
1.8012e-10
1.9041e-10
1.75587e-10
1.64715e-10
1.36769e-10
7.88685e-11
-2.40408e-11
-1.62826e-10
-1.88902e-10
-9.7255e-11
-2.4846e-11
-5.72497e-11
-9.48985e-11
-8.57712e-11
-7.67437e-11
-6.18555e-11
-4.53454e-11
-4.11802e-11
-1.97938e-11
1.27705e-10
1.50665e-10
1.38116e-10
1.22494e-10
8.76111e-11
2.14605e-11
-1.04443e-10
-1.68455e-10
-1.52302e-10
-9.94134e-11
-6.7184e-11
-8.77933e-11
-1.12726e-10
-1.06458e-10
-9.03986e-11
-7.32529e-11
-5.80857e-11
-4.74036e-11
-2.69619e-11
4.90291e-11
6.81887e-11
5.70225e-11
4.49504e-11
1.37314e-11
-5.08681e-11
-1.66166e-10
-1.54628e-10
-1.37311e-10
-1.1682e-10
-1.09523e-10
-1.16203e-10
-1.23198e-10
-1.2175e-10
-1.03468e-10
-8.19845e-11
-7.09881e-11
-4.84428e-11
-2.43304e-11
-4.29177e-11
-3.88153e-11
-4.26993e-11
-4.05634e-11
-5.92897e-11
-1.08203e-10
-1.67568e-10
-1.57401e-10
-1.48514e-10
-1.39371e-10
-1.31243e-10
-1.28522e-10
-1.26598e-10
-1.22154e-10
-1.10632e-10
-9.05761e-11
-7.91263e-11
-4.33096e-11
-1.72475e-11
-1.43492e-10
-1.52609e-10
-1.46724e-10
-1.3362e-10
-1.33018e-10
-1.50692e-10
-1.62858e-10
-1.57741e-10
-1.48956e-10
-1.41461e-10
-1.32066e-10
-1.28489e-10
-1.25672e-10
-1.19665e-10
-1.09555e-10
-8.93002e-11
-7.57358e-11
-3.50483e-11
-1.38998e-11
-2.11798e-14
8.12671e-13
2.84714e-13
1.4136e-13
1.45551e-12
1.93709e-13
-1.19945e-13
1.2605e-12
-5.17695e-12
-2.91606e-12
-3.08781e-12
2.62156e-11
7.49053e-12
6.32554e-12
7.37249e-11
1.36155e-11
9.73462e-12
3.5603e-11
4.43306e-12
3.81194e-12
1.76665e-12
2.47259e-12
3.08833e-12
3.41364e-12
3.55321e-12
3.55015e-12
7.79894e-11
3.74025e-12
4.17117e-12
4.57572e-12
4.96285e-12
5.41346e-12
5.8792e-12
6.30562e-12
6.72616e-12
7.15932e-12
7.39954e-12
7.55097e-12
6.9565e-12
7.27861e-12
6.18667e-11
-7.5005e-12
-1.25129e-11
-1.29266e-11
-8.48422e-11
-7.41766e-12
-1.57248e-12
1.75112e-12
1.33225e-11
-4.10594e-12
-1.02855e-11
-8.70225e-11
-9.79309e-12
-6.55111e-12
-3.33719e-13
6.96687e-11
1.85264e-11
1.98688e-11
1.82357e-11
-1.04581e-11
-8.30016e-12
-6.21774e-12
-7.46761e-12
-7.72924e-12
-8.05364e-12
-8.10046e-12
-7.90878e-12
-7.56706e-12
-7.25375e-12
-7.05762e-12
-7.00032e-12
-6.96363e-12
-6.6892e-12
-8.67317e-11
-5.92425e-12
-5.92399e-12
-6.10621e-12
-6.24672e-12
-5.99843e-12
-5.0501e-12
-2.42128e-11
-2.61957e-11
-1.74012e-10
-3.60104e-11
-3.75983e-11
-2.28459e-10
-5.25522e-11
-5.19423e-11
-2.07053e-10
-2.23892e-11
-5.31416e-12
-1.8138e-10
-5.83595e-11
-6.5024e-11
-6.7531e-11
-3.14353e-10
-4.96205e-11
-4.35727e-11
-1.90323e-10
-3.67019e-11
-1.12382e-12
-5.2202e-11
-8.25579e-11
-1.03073e-10
-1.22608e-10
-1.39579e-10
-1.48923e-10
-1.28931e-10
-9.8232e-11
-5.81286e-11
-4.02211e-11
-4.4246e-11
-8.65811e-11
-1.35144e-10
-1.58902e-10
-1.61837e-10
-1.61991e-10
-1.69774e-10
-1.37101e-10
-6.84695e-12
-5.64004e-11
-8.49711e-11
-1.04972e-10
-1.24502e-10
-1.40494e-10
-1.28887e-10
-7.87663e-11
-4.54895e-11
-2.47629e-11
-2.84753e-11
-4.18737e-11
-8.41814e-11
-1.32214e-10
-1.57449e-10
-1.62131e-10
-1.61416e-10
-1.75132e-10
-9.89837e-11
-1.39273e-11
-6.17789e-11
-8.78843e-11
-1.07505e-10
-1.27292e-10
-1.38962e-10
-9.26896e-11
-3.76792e-11
-2.45329e-11
-2.06534e-11
-1.66986e-11
-3.43388e-11
-8.0661e-11
-1.28762e-10
-1.55743e-10
-1.62639e-10
-1.61124e-10
-1.76489e-10
-1.22853e-10
-2.0435e-11
-6.85774e-11
-9.05448e-11
-1.1059e-10
-1.30274e-10
-1.21973e-10
-4.58496e-11
-5.64739e-12
-1.13489e-11
-2.16801e-11
-2.23917e-11
-2.70225e-11
-7.50435e-11
-1.24514e-10
-1.53141e-10
-1.62485e-10
-1.61166e-10
-1.75915e-10
-1.27109e-10
-2.53607e-11
-7.71875e-11
-9.31532e-11
-1.14299e-10
-1.31342e-10
-8.57692e-11
-4.6873e-12
9.41689e-12
-1.04451e-11
-3.03474e-11
-4.57593e-11
-3.96103e-11
-6.88278e-11
-1.18515e-10
-1.47752e-10
-1.59479e-10
-1.59955e-10
-1.7594e-10
-1.22363e-10
-2.78251e-11
-8.61594e-11
-9.69837e-11
-1.18387e-10
-1.28758e-10
-4.92914e-11
1.70844e-11
5.00552e-12
-2.23502e-11
-4.48635e-11
-6.32828e-11
-7.36576e-11
-8.05429e-11
-1.16075e-10
-1.43119e-10
-1.54832e-10
-1.5782e-10
-1.77023e-10
-1.33416e-10
-2.79867e-11
-9.23162e-11
-1.02683e-10
-1.2278e-10
-1.24273e-10
-3.13288e-11
1.48917e-11
-1.61487e-11
-4.84304e-11
-7.67635e-11
-9.97991e-11
-1.25383e-10
-1.16224e-10
-1.31966e-10
-1.48613e-10
-1.48063e-10