/*--------------------------------*- C++ -*----------------------------------*\
| =========                 |                                                 |
| \\      /  F ield         | OpenFOAM: The Open Source CFD Toolbox           |
|  \\    /   O peration     | Version:  4.1                                   |
|   \\  /    A nd           | Web:      www.OpenFOAM.org                      |
|    \\/     M anipulation  |                                                 |
\*---------------------------------------------------------------------------*/
FoamFile
{
    version     2.0;
    format      ascii;
    class       volVectorField;
    location    "23";
    object      U;
}
// * * * * * * * * * * * * * * * * * * * * * * * * * * * * * * * * * * * * * //

dimensions      [0 1 -1 0 0 0 0];

internalField   nonuniform List<vector> 
1280
(
(1.53061e-17 10.7998 0.225596)
(-1.38121e-16 13.6057 -1.8149)
(-2.5799e-16 12.5948 -1.48746)
(-1.02158e-16 12.8303 -1.21553)
(-2.47377e-16 16.3792 -3.94599)
(-1.39989e-16 14.2649 -3.25647)
(8.66809e-17 16.1113 -3.25239)
(-1.08922e-15 15.3067 -2.80679)
(1.47197e-15 19.7066 -6.98658)
(2.25343e-15 18.383 -5.68058)
(2.23148e-15 19.4978 -4.90595)
(-6.48453e-15 24.3375 -11.0994)
(-5.41321e-15 22.9297 -9.22147)
(-4.53122e-15 24.8571 -8.08368)
(-1.46583e-14 30.7295 -17.2983)
(-9.83959e-15 29.6548 -14.2697)
(-7.03496e-15 32.8007 -13.4858)
(-6.05108e-15 38.4046 -26.0667)
(-3.20365e-15 39.722 -20.2934)
(-2.75479e-15 39.8181 -28.6131)
(-7.2478e-15 41.335 25.1436)
(-1.0144e-14 41.5023 60.1597)
(-1.26701e-14 42.6154 81.1957)
(-1.40047e-14 45.4254 91.3063)
(-1.45773e-14 47.1571 96.094)
(-1.45647e-14 50.7887 99.8154)
(-1.64405e-14 42.4412 66.7143)
(-1.53446e-14 86.1083 124.211)
(-1.71125e-14 85.7867 124.554)
(-1.87722e-14 87.0273 123.305)
(-2.03604e-14 87.2771 121.636)
(-2.22091e-14 87.2695 119.728)
(-2.41198e-14 87.1617 117.879)
(-2.58692e-14 86.8368 116.223)
(-2.75945e-14 86.3888 114.777)
(-2.93716e-14 85.6869 113.455)
(-3.03571e-14 84.9878 112.162)
(-3.09784e-14 83.7912 110.477)
(-2.85395e-14 83.2256 108.757)
(-2.9861e-14 80.8366 103.498)
(-1.07688e-14 94.7724 120.653)
(6.0245e-15 59.4973 85.311)
(1.00505e-14 51.4912 85.5709)
(1.03828e-14 39.831 84.174)
(1.55514e-14 30.0275 81.7025)
(5.95796e-15 18.0368 48.1349)
(1.26304e-15 12.6196 42.567)
(-1.40652e-15 8.13758 32.4353)
(-1.64983e-15 5.73084 13.6003)
(3.61837e-15 2.84789 7.24546)
(8.81597e-15 1.68238 5.23728)
(1.51475e-14 -0.356902 2.23066)
(7.86594e-15 -2.81384 20.5686)
(5.26194e-15 -5.30938 31.2392)
(2.68047e-16 -10.2444 38.4046)
(-1.21268e-14 -18.3257 71.1155)
(-1.48807e-14 -29.1209 84.6045)
(-1.59589e-14 -39.4507 90.4774)
(-1.46471e-14 -49.7199 91.9997)
(-3.73833e-16 -94.3622 131.858)
(3.40519e-14 -70.6473 121.419)
(2.55087e-14 -72.8612 127.209)
(3.06364e-14 -72.1858 127.679)
(3.17097e-14 -73.0367 128.314)
(3.30406e-14 -73.0243 128.58)
(3.32326e-14 -73.3964 128.856)
(3.24463e-14 -73.4833 129.278)
(3.10444e-14 -73.6192 129.728)
(2.9759e-14 -73.5719 129.823)
(2.89543e-14 -73.4039 129.166)
(2.87192e-14 -72.9972 127.706)
(2.85687e-14 -71.9986 125.647)
(2.74429e-14 -71.3711 122.669)
(1.82834e-14 -34.9708 71.4411)
(2.43046e-14 -40.033 88.8987)
(2.43035e-14 -37.4005 83.8149)
(2.50511e-14 -36.7204 77.5042)
(2.56276e-14 -34.7626 68.3512)
(2.46089e-14 -33.375 53.3936)
(2.07183e-14 -33.0532 26.8953)
(1.74979e-14 -29.1917 -33.2851)
(1.89065e-14 -31.4205 -29.1382)
(2.9575e-14 -21.1351 -38.4242)
(2.60238e-14 -19.9893 -20.9846)
(2.71713e-14 -14.6704 -23.8387)
(4.00737e-14 -11.5647 -29.0961)
(3.88204e-14 -7.44909 -15.6168)
(3.83806e-14 -4.39244 -17.5533)
(3.7433e-14 -0.401748 -23.3461)
(1.49404e-14 1.90646 -15.9033)
(2.60063e-15 4.5367 -14.1469)
(3.45896e-14 9.21802 -18.008)
(4.26338e-14 9.5774 -12.4156)
(4.69912e-14 12.4641 -12.4)
(4.88029e-14 13.0853 -11.715)
(5.34274e-14 19.2508 -17.0744)
(3.58594e-14 18.1864 -12.3583)
(3.14888e-14 21.2753 -11.1718)
(3.22351e-14 22.4496 -16.3024)
(2.65235e-14 27.2288 -17.4609)
(1.24869e-16 -26.7631 27.3969)
(5.80023e-15 -40.8929 26.122)
(9.1731e-15 -42.7267 24.1578)
(1.14525e-14 -43.3251 21.4161)
(1.36231e-14 -37.6233 19.3027)
(1.55087e-14 -15.5798 14.1798)
(1.65471e-14 29.1985 -3.49269)
(1.43256e-14 40.2658 -6.9037)
(1.09147e-14 35.0972 1.57829)
(6.45873e-15 10.0154 6.02347)
(4.46901e-15 -23.3686 -4.32389)
(4.91622e-15 -39.3873 -8.45498)
(9.62012e-15 -43.946 -12.8372)
(1.5016e-14 -42.7124 -18.5583)
(1.76558e-14 -36.772 -23.7067)
(1.79819e-14 -26.7905 -26.1894)
(1.7999e-14 -15.4201 -26.891)
(1.88638e-14 -5.18327 -25.8362)
(1.52334e-14 9.88932 -25.1935)
(7.60772e-16 -26.7776 27.527)
(6.26671e-15 -39.9991 26.6219)
(9.44123e-15 -41.3321 24.7227)
(1.16635e-14 -41.7079 22.5413)
(1.38335e-14 -34.8321 20.9493)
(1.56104e-14 -5.26597 11.4656)
(1.43208e-14 34.5171 -6.99778)
(8.75181e-15 38.1122 0.493435)
(5.05439e-15 30.2015 12.6453)
(2.75143e-15 13.1301 14.9584)
(3.16392e-15 -21.2993 -2.48975)
(4.65263e-15 -37.7666 -6.2805)
(9.35349e-15 -41.1132 -9.9986)
(1.46905e-14 -39.4644 -16.6443)
(1.74944e-14 -34.2394 -22.8066)
(1.80146e-14 -25.5781 -26.5436)
(1.79351e-14 -15.4122 -27.9223)
(1.94591e-14 -6.15764 -27.4386)
(1.09982e-14 6.67213 -22.023)
(1.54748e-15 -26.562 27.93)
(6.86432e-15 -39.4298 27.1394)
(9.76492e-15 -40.697 25.4373)
(1.1945e-14 -41.2815 23.993)
(1.41435e-14 -33.4468 22.8728)
(1.54402e-14 0.509049 9.5119)
(1.02988e-14 33.5258 -1.38012)
(4.18658e-15 33.0345 12.5993)
(2.72588e-15 28.5898 21.6321)
(2.29482e-15 17.0823 24.1915)
(1.8554e-15 -15.1345 4.80826)
(3.81542e-15 -35.7015 -3.21636)
(8.96233e-15 -38.9158 -4.96635)
(1.43069e-14 -36.87 -12.9676)
(1.73047e-14 -32.1715 -20.6459)
(1.8071e-14 -24.4717 -26.1371)
(1.79027e-14 -15.0791 -29.0446)
(1.96099e-14 -7.08704 -28.8636)
(1.36504e-14 5.04565 -23.0018)
(2.27056e-15 -26.5199 28.0923)
(7.61971e-15 -38.9739 27.5813)
(1.00605e-14 -40.236 26.3623)
(1.22878e-14 -40.9445 25.7823)
(1.44748e-14 -31.1885 24.9314)
(1.35525e-14 6.81842 10.5524)
(5.0944e-15 31.0728 10.7762)
(6.27487e-16 28.6981 26.005)
(1.26099e-15 26.3366 33.1573)
(2.40891e-15 19.4607 37.054)
(2.48797e-15 -11.4678 20.1174)
(3.0025e-15 -33.9358 2.38129)
(8.33817e-15 -36.9464 1.90178)
(1.38349e-14 -33.5899 -7.08547)
(1.70157e-14 -29.2194 -16.4936)
(1.80539e-14 -22.3949 -24.0832)
(1.79074e-14 -14.5139 -29.1184)
(1.95461e-14 -9.37278 -29.4764)
(1.41232e-14 1.90547 -25.8781)
(2.81785e-15 -26.5506 27.5293)
(8.57639e-15 -38.6936 27.8508)
(1.03504e-14 -40.0074 27.5746)
(1.26999e-14 -40.7764 27.8663)
(1.45936e-14 -28.8162 27.284)
(9.52992e-15 8.67059 17.8435)
(5.20811e-16 26.1701 27.5653)
(-1.04632e-15 24.1966 41.3787)
(1.16056e-15 24.2318 46.6014)
(3.37194e-15 20.4107 51.1636)
(5.08437e-15 0.132534 46.1932)
(4.40114e-15 -28.752 16.7684)
(7.64753e-15 -34.6807 9.98345)
(1.31684e-14 -29.769 1.20613)
(1.64169e-14 -25.2306 -10.1405)
(1.77199e-14 -19.3209 -20.0463)
(1.77728e-14 -12.5033 -28.4102)
(1.95489e-14 -7.35832 -28.7184)
(1.35959e-14 2.65672 -31.082)
(3.09168e-15 -26.8049 26.0985)
(9.57326e-15 -38.903 27.7498)
(1.0776e-14 -40.2157 28.9883)
(1.31542e-14 -40.9784 30.1382)
(1.43064e-14 -27.6022 30.3707)
(5.47682e-15 7.10986 30.4318)
(-1.89827e-15 20.8622 46.5408)
(-5.56169e-16 20.9462 58.3292)
(2.48335e-15 23.1323 62.7162)
(4.98483e-15 20.7866 64.9074)
(7.03142e-15 4.47486 62.8519)
(8.18418e-15 -20.898 43.5306)
(8.94921e-15 -29.7539 23.0674)
(1.28972e-14 -25.6369 13.3559)
(1.59021e-14 -20.6397 0.0816161)
(1.72035e-14 -15.1219 -12.0296)
(1.75355e-14 -12.0069 -25.9506)
(1.96692e-14 -11.3387 -25.2444)
(1.4824e-14 1.37081 -40.5165)
(3.10964e-15 -27.3672 24.2501)
(1.02574e-14 -39.7741 27.2013)
(1.14092e-14 -40.9481 30.3408)
(1.36423e-14 -41.6422 32.4169)
(1.38081e-14 -28.4682 34.329)
(3.48098e-15 2.40589 44.1978)
(-1.65464e-15 14.7909 64.913)
(1.7943e-15 17.5349 76.8311)
(5.38115e-15 21.5762 84.6114)
(8.52927e-15 20.1825 88.5102)
(1.10888e-14 6.96235 82.7962)
(1.39314e-14 -13.3088 67.8336)
(1.29138e-14 -22.4266 44.74)
(1.46628e-14 -20.7739 31.9661)
(1.65126e-14 -14.9374 17.6091)
(1.64514e-14 -8.15286 4.30367)
(1.48856e-14 -4.22496 -11.9341)
(2.03184e-14 3.04093 -27.9995)
(1.27908e-14 14.7108 -21.1598)
(3.26131e-15 -28.1535 22.964)
(1.03854e-14 -41.2625 26.5252)
(1.20937e-14 -42.2688 31.3517)
(1.41398e-14 -42.9374 34.4693)
(1.31604e-14 -31.6396 38.6081)
(3.41829e-15 -5.21309 54.9691)
(7.92131e-16 7.87881 78.7153)
(4.79721e-15 12.8949 91.8549)
(8.62764e-15 18.5381 104.764)
(1.27594e-14 20.6638 115.122)
(1.73414e-14 12.2111 114.384)
(1.91417e-14 -5.04666 94.613)
(1.8339e-14 -14.8486 72.2897)
(1.81731e-14 -14.8636 56.9164)
(1.72903e-14 -9.7632 45.3433)
(1.22202e-14 -4.27858 41.6529)
(2.96656e-15 -4.06432 47.3282)
(-2.92097e-15 -14.6521 64.5065)
(-4.33224e-15 -46.404 94.1333)
(4.26154e-15 -28.9663 23.5349)
(1.01299e-14 -43.054 26.5432)
(1.24643e-14 -44.0832 32.0439)
(1.46396e-14 -44.8533 36.0688)
(1.38229e-14 -36.1219 41.8357)
(6.56818e-15 -13.7993 59.4763)
(3.38484e-15 0.447761 83.4379)
(6.43039e-15 6.9276 97.3943)
(8.71496e-15 12.7783 111.675)
(1.14305e-14 17.1759 126.021)
(1.53127e-14 14.6542 133.937)
(1.93369e-14 2.96471 125.599)
(2.07851e-14 -7.04634 106.09)
(1.92988e-14 -9.91377 90.7537)
(1.59887e-14 -8.34968 83.1112)
(1.08013e-14 -7.46885 83.6851)
(3.18084e-15 -10.454 91.7291)
(-3.98402e-15 -15.544 101.617)
(-8.78174e-15 -19.3359 91.7072)
(6.63989e-15 -29.5434 27.1431)
(1.00633e-14 -44.6027 28.2686)
(1.26296e-14 -46.0378 32.9334)
(1.54035e-14 -47.1078 37.2455)
(1.30534e-14 -40.777 43.7044)
(-1.43394e-15 -22.2364 60.7522)
(-9.70236e-15 -7.11351 85.2117)
(6.81135e-15 1.20921 100.186)
(3.48671e-15 7.00549 112.414)
(4.56869e-15 11.6958 125.269)
(5.93761e-15 12.2136 135.301)
(6.68962e-15 6.12343 136.15)
(3.91969e-15 -1.30893 126.257)
(3.35267e-15 -5.84626 113.266)
(2.28904e-15 -7.00506 103.316)
(1.12795e-14 -8.02907 97.8399)
(6.37195e-15 -11.8475 95.198)
(2.93741e-15 -15.3514 85.5425)
(3.22058e-15 -14.2984 47.7759)
(1.04098e-14 -29.6064 34.2002)
(1.08592e-14 -45.3292 32.4114)
(1.28225e-14 -47.6264 34.865)
(1.56582e-14 -49.3435 38.365)
(1.23592e-14 -45.2495 44.432)
(1.58282e-15 -30.4478 59.5114)
(-1.6347e-16 -14.9933 82.2959)
(-5.10796e-15 -3.92925 95.8811)
(-9.15893e-15 3.07278 103.218)
(-9.94019e-15 8.20144 109.541)
(-8.77482e-15 10.1466 114.494)
(-5.97702e-15 6.96416 115.863)
(-2.61386e-15 2.36118 112.241)
(5.63286e-16 -0.775366 107.466)
(3.17591e-15 -2.30759 102.261)
(5.59589e-15 -4.00217 99.2347)
(5.77446e-15 -4.72842 96.6444)
(5.37012e-15 0.842915 84.83)
(4.17375e-15 10.5552 49.1977)
(1.50063e-14 -28.9969 43.994)
(1.29026e-14 -44.8617 39.0892)
(1.33832e-14 -48.3573 38.682)
(1.55684e-14 -51.0756 40.2043)
(1.28542e-14 -49.0373 44.7159)
(5.47469e-15 -37.4777 56.7525)
(4.65622e-16 -21.5896 75.2575)
(-7.09119e-15 -7.22602 82.2775)
(-9.19553e-15 1.58106 80.0775)
(-9.87523e-15 7.21602 78.9629)
(-9.77982e-15 9.63852 78.699)
(-9.35817e-15 6.97766 78.5079)
(-7.81678e-15 2.2151 77.865)
(-5.13961e-15 -1.68989 79.0384)
(-1.40013e-15 -4.03833 86.8098)
(2.38577e-15 -6.06733 98.0984)
(5.95151e-15 -6.60919 111.573)
(9.40886e-15 -0.16782 116.378)
(1.23233e-14 15.7433 100.34)
(1.92694e-14 -27.7633 55.2052)
(1.59104e-14 -43.2485 47.7147)
(1.47031e-14 -48.0052 44.6228)
(1.59099e-14 -51.8884 43.4041)
(1.43324e-14 -51.7193 45.3077)
(8.87763e-15 -42.6776 53.5487)
(1.29464e-15 -25.2783 65.6539)
(-4.80575e-15 -6.04899 62.1046)
(-4.81139e-15 4.36847 50.4665)
(-5.12785e-15 8.65396 48.1033)
(-5.54263e-15 10.0844 47.7977)
(-6.79391e-15 7.3429 48.5385)
(-7.59489e-15 1.84185 49.5384)
(-6.39136e-15 -4.37924 49.4122)
(-2.90029e-15 -9.7355 55.1436)
(2.69168e-15 -13.3385 67.724)
(6.97612e-15 -10.8566 81.3289)
(4.1665e-15 6.52079 82.7076)
(-3.51935e-15 43.2803 88.6348)
(2.1999e-14 -26.0446 67.2112)
(1.9019e-14 -40.6994 57.2986)
(1.68695e-14 -46.5402 51.8956)
(1.7227e-14 -51.4549 47.9072)
(1.61167e-14 -52.9499 46.9809)
(1.10585e-14 -45.5984 51.2648)
(2.59521e-15 -25.2759 55.0033)
(-1.8317e-15 -1.23781 38.8755)
(-1.39277e-15 7.19004 24.8542)
(-1.50118e-15 8.32471 27.1645)
(-2.67601e-15 9.42217 27.881)
(-4.71836e-15 6.88446 27.9174)
(-6.80831e-15 1.97554 28.2084)
(-6.91333e-15 -4.17552 28.3614)
(-4.90116e-15 -11.113 28.0766)
(-4.81722e-16 -15.6847 28.0711)
(3.05718e-15 -11.548 24.6157)
(-1.00392e-15 -2.78504 3.20097)
(-7.9301e-15 -8.06926 -13.3388)
(2.24498e-14 -23.8251 81.5797)
(2.12548e-14 -37.2493 69.6193)
(1.91613e-14 -44.1625 61.9689)
(1.87768e-14 -50.0401 55.8852)
(1.6939e-14 -52.9405 52.3904)
(1.13297e-14 -45.8147 51.4336)
(2.33282e-15 -20.4352 42.5828)
(-6.67086e-15 6.19272 10.3926)
(-8.9539e-15 8.62606 3.51527)
(-2.31087e-15 7.32127 10.3685)
(-1.54466e-15 9.17114 13.2475)
(-4.71401e-15 7.32016 15.1042)
(-7.72816e-15 2.15048 13.05)
(-7.83235e-15 -3.934 13.4088)
(-6.86826e-15 -9.57028 10.1904)
(-4.49978e-15 -12.5399 3.54703)
(-2.33614e-15 -4.61939 -5.70519)
(-3.18414e-15 10.526 -8.99148)
(-2.25714e-15 10.1711 -24.7446)
(2.00134e-14 -21.0976 99.5986)
(2.11567e-14 -32.8983 89.2717)
(1.95097e-14 -40.8765 79.5114)
(1.83017e-14 -47.6882 70.8479)
(1.51966e-14 -50.9948 62.2842)
(8.76317e-15 -41.7756 51.5275)
(-2.6712e-15 -10.09 27.0252)
(-1.80918e-14 14.1 -3.72267)
(-2.09891e-14 8.81522 -3.48134)
(-1.08061e-14 4.65466 -1.85263)
(-2.76067e-15 7.49156 1.17197)
(-6.36108e-15 7.20543 4.38532)
(-1.05443e-14 1.97075 2.15155)
(-9.53013e-15 -3.66654 3.87776)
(-8.52708e-15 -7.19914 0.501364)
(-6.87283e-15 -8.82598 -5.67174)
(-5.03837e-15 -3.78696 -13.8449)
(-4.57558e-15 9.64928 -12.668)
(-2.19931e-15 7.30392 -20.5685)
(1.41894e-14 -19.8283 114.7)
(1.67406e-14 -29.5515 108.706)
(1.53462e-14 -36.8574 96.5182)
(1.36104e-14 -43.3421 83.2381)
(9.73457e-15 -45.0498 66.455)
(2.3845e-15 -31.8192 43.8629)
(-1.16048e-14 3.38867 8.49244)
(-1.87173e-14 16.8387 4.10521)
(-1.69224e-14 8.44286 5.42598)
(-1.10459e-14 5.17555 0.261044)
(-7.46488e-15 6.87092 -2.97896)
(-9.75481e-15 7.02182 -3.25431)
(-1.25251e-14 2.66121 -3.29518)
(-1.18287e-14 -3.55229 -3.01674)
(-1.00443e-14 -5.67118 -4.4869)
(-8.13921e-15 -6.48986 -7.97243)
(-6.45397e-15 -2.62539 -15.4606)
(-5.26707e-15 10.9696 -13.115)
(-2.99577e-15 10.8181 -14.0882)
(5.44768e-15 -18.4812 114.577)
(7.57653e-15 -25.4535 108.944)
(6.33583e-15 -30.5326 94.1125)
(4.99449e-15 -35.6602 77.8966)
(1.52571e-15 -34.9704 56.6038)
(-5.65201e-15 -19.3971 29.0379)
(-1.84629e-14 7.75886 -2.03861)
(-1.71809e-14 14.7289 9.34174)
(-1.52568e-14 10.4538 5.95556)
(-1.298e-14 7.29126 -0.797772)
(-1.21692e-14 8.08824 -4.66092)
(-1.29115e-14 7.15733 -5.20494)
(-1.36887e-14 3.01232 -5.2314)
(-1.35278e-14 -3.484 -7.21548)
(-1.14965e-14 -5.21155 -7.44083)
(-9.10939e-15 -4.69322 -8.64385)
(-7.88757e-15 -1.27267 -15.2182)
(-5.38254e-15 9.03038 -12.3496)
(-2.70337e-15 8.7172 -10.9281)
(-4.76863e-15 -18.1718 98.6052)
(-4.31281e-15 -21.9456 84.8068)
(-4.74437e-15 -24.715 70.3871)
(-4.50704e-15 -28.5369 57.3777)
(-6.58775e-15 -25.4766 38.3109)
(-1.20226e-14 -8.81227 14.9918)
(-1.86187e-14 9.83342 3.42073)
(-1.7489e-14 14.0037 9.51386)
(-1.65016e-14 12.9711 6.17144)
(-1.54857e-14 9.52409 -0.456752)
(-1.45825e-14 8.88599 -4.21163)
(-1.42802e-14 7.16511 -6.00962)
(-1.40664e-14 3.33965 -6.66686)
(-1.35727e-14 -3.04537 -8.4764)
(-1.22924e-14 -5.09306 -9.44059)
(-1.0064e-14 -3.44314 -9.57388)
(-8.79181e-15 -0.801243 -13.667)
(-4.81218e-15 8.16073 -9.98309)
(-1.91638e-15 8.64838 -8.62957)
(-1.59435e-14 -11.8623 66.8725)
(-1.69565e-14 -12.8693 48.6085)
(-1.63026e-14 -18.6725 38.4652)
(-1.48466e-14 -22.1429 31.2798)
(-1.47798e-14 -17.5712 19.8164)
(-1.67435e-14 -4.08477 7.96721)
(-1.80954e-14 9.16424 7.80604)
(-1.75267e-14 13.7752 9.20742)
(-1.65506e-14 15.1988 6.49995)
(-1.57179e-14 12.1365 -0.376158)
(-1.4674e-14 10.6895 -4.88574)
(-1.42766e-14 8.28749 -7.21276)
(-1.39636e-14 4.33831 -7.70205)
(-1.32961e-14 -2.39378 -8.30689)
(-1.21728e-14 -4.82003 -9.01289)
(-9.92225e-15 -2.91207 -8.71458)
(-8.41509e-15 -0.895312 -10.5145)
(-3.89426e-15 6.9632 -7.95363)
(-1.54442e-15 6.37992 -8.34301)
(2.84149e-16 72.7979 117.484)
(5.68226e-15 156.237 252.696)
(5.07954e-15 184.857 291.246)
(4.00756e-15 184.472 282.475)
(3.0904e-15 174.811 259.807)
(3.02341e-15 164.781 235.47)
(1.68541e-15 154.361 213.236)
(-5.03065e-16 145.217 193.627)
(-2.80927e-15 136.317 175.199)
(-4.95467e-15 127.287 157.712)
(-7.66548e-15 118.115 140.989)
(-1.11563e-14 108.763 125.067)
(-1.56368e-14 99.2019 110.035)
(-2.10785e-14 89.4548 95.8624)
(-2.76352e-14 79.2793 82.4602)
(-3.51902e-14 68.7179 69.4711)
(-4.32967e-14 56.8776 56.5985)
(-5.29556e-14 44.6192 42.8859)
(-6.59862e-14 27.2512 27.3547)
(-9.06002e-14 11.1868 1.7994)
(-4.99262e-16 115.682 191.447)
(1.0015e-14 182.763 291.107)
(1.02465e-14 184.265 295.149)
(9.81658e-15 173.886 275.593)
(1.01262e-14 161.92 256.436)
(1.27859e-14 152.98 238.775)
(1.34702e-14 143.912 221.426)
(1.38467e-14 134.545 202.683)
(1.31396e-14 124.31 183.103)
(1.54466e-14 113.608 162.943)
(1.59551e-14 102.374 142.569)
(1.75607e-14 90.651 122.062)
(1.85481e-14 78.2974 101.563)
(1.7046e-14 65.3811 81.0824)
(1.63377e-14 51.625 60.7864)
(1.29488e-14 37.4606 40.1429)
(9.09505e-15 21.3724 18.9939)
(-2.71795e-15 6.28059 -4.48177)
(-1.38152e-14 -18.779 -29.6269)
(-6.87806e-14 -22.9414 -62.011)
(-7.35517e-17 149.059 261.101)
(2.7062e-15 182.969 305.845)
(2.52434e-15 165.781 289.446)
(2.66152e-15 156.634 272.578)
(3.37907e-15 145.629 259.541)
(4.92459e-15 136.452 244.541)
(3.29054e-15 124.192 226.77)
(4.85858e-15 111.406 206.543)
(7.10512e-15 97.618 185.511)
(1.04003e-14 83.5928 163.648)
(1.57861e-14 68.9347 141.085)
(2.28185e-14 53.6826 117.53)
(3.14801e-14 37.7075 93.0334)
(4.18786e-14 21.4339 68.127)
(4.77417e-14 5.67008 44.0684)
(3.36148e-14 -8.96422 21.4275)
(-5.39599e-15 -22.4413 -1.37309)
(-5.20894e-14 -35.1797 -27.3423)
(-8.70665e-14 -44.9049 -49.3155)
(-7.19416e-14 -26.5031 -39.8055)
(-1.32504e-17 140.635 251.229)
(-8.76258e-16 150.108 265.789)
(-8.11948e-16 139.383 258.459)
(-9.31181e-16 130.646 246.697)
(-9.55662e-16 118.311 233.059)
(-1.24268e-15 106.176 218.101)
(3.59725e-16 92.0297 200.693)
(1.75406e-15 77.1962 181.209)
(3.77773e-15 61.572 160.566)
(7.4131e-15 45.4913 138.875)
(1.36868e-14 28.9087 116.434)
(2.11393e-14 12.119 93.3962)
(2.86389e-14 -4.48527 70.1497)
(3.66072e-14 -19.5446 48.1352)
(3.99577e-14 -30.4567 30.4847)
(2.65528e-14 -33.851 21.2702)
(-1.26724e-15 -25.865 25.4086)
(-2.13929e-14 -3.14961 46.341)
(-2.16212e-14 28.1385 75.825)
(-6.90648e-15 35.5581 77.3595)
(1.80624e-17 118.935 210.185)
(1.76869e-16 134.874 242.597)
(1.62846e-16 128.21 233.419)
(8.87976e-17 116.738 218.243)
(-3.58533e-16 103.923 200.428)
(-9.08266e-16 91.4136 184.508)
(-1.10708e-15 78.9849 168.374)
(-1.7077e-15 65.8034 150.375)
(-2.12203e-15 52.0092 130.555)
(-1.40523e-15 38.012 109.439)
(6.84686e-16 24.4985 88.1846)
(7.95074e-16 12.6209 68.6279)
(-6.93962e-15 4.18166 53.7492)
(-2.28441e-14 2.10131 48.1958)
(-3.68713e-14 10.1262 57.8057)
(-3.74639e-14 30.0605 85.259)
(-2.40693e-14 58.129 124.4)
(-6.54651e-15 84.3338 160.099)
(4.54638e-15 97.8139 171.002)
(4.5917e-15 70.2808 130.039)
(-2.74938e-18 112.102 192.471)
(-1.79805e-17 136.705 238.78)
(-1.34434e-17 132.997 228.214)
(4.92219e-18 122.952 211.3)
(1.23135e-16 111.908 190.807)
(2.92715e-16 101.616 172.69)
(2.62033e-16 93.5389 158.395)
(2.92263e-16 86.3358 144.888)
(2.42877e-16 79.3989 131.389)
(1.01327e-16 73.0596 117.689)
(-6.37934e-18 67.3911 104.153)
(1.82192e-16 62.7179 91.245)
(6.76709e-16 59.9886 80.8538)
(1.03526e-15 60.3472 75.9413)
(1.20724e-15 65.0617 79.3889)
(2.20157e-15 73.2334 92.3518)
(4.50894e-15 83.0632 111.018)
(6.44035e-15 88.1357 128.279)
(5.17026e-15 84.5198 130.204)
(8.09223e-16 60.6028 103.739)
(-1.22642e-19 114.23 195.862)
(-1.89593e-18 146.289 251.917)
(-3.6427e-18 142.822 241.631)
(-6.96106e-18 133.11 223.138)
(-2.42195e-17 122.539 203.24)
(-5.27258e-17 113.711 185.486)
(-4.119e-17 106.798 171.813)
(-2.69813e-17 101.294 159.695)
(1.0037e-17 96.0459 148.403)
(6.76113e-17 91.2559 137.412)
(9.63936e-17 86.6894 126.659)
(4.03366e-17 82.2535 115.823)
(-7.38962e-17 77.7747 104.69)
(-1.26986e-16 73.3044 93.8048)
(6.86609e-18 69.3316 84.743)
(3.80219e-16 66.482 79.7003)
(8.8041e-16 64.5901 79.6381)
(1.06587e-15 62.4388 81.8548)
(3.66153e-16 54.789 79.2609)
(-6.12336e-16 33.7265 49.8734)
(2.37092e-19 117.536 201.036)
(1.72229e-18 155.54 265.184)
(2.39134e-18 148.919 251.38)
(2.87189e-18 137.529 229.186)
(3.88334e-18 125.735 208.949)
(5.07067e-18 117.561 191.988)
(3.22905e-19 110.346 178.779)
(-5.60732e-18 104.266 165.97)
(-1.59411e-17 97.9268 153.829)
(-3.04608e-17 91.9344 142.002)
(-3.89373e-17 86.0615 130.801)
(-2.86672e-17 80.4447 120.171)
(-3.98074e-18 74.9414 110.006)
(9.21047e-18 69.5038 99.9352)
(-1.93542e-17 63.7104 89.7374)
(-1.17525e-16 57.7645 79.2493)
(-3.21031e-16 50.7109 69.073)
(-6.44178e-16 43.3791 58.1353)
(-8.84462e-16 30.3217 44.0093)
(-8.40418e-16 9.67911 6.3338)
(-1.09959e-19 125.773 215.483)
(-6.87728e-19 165.566 278.401)
(-9.2663e-19 153.1 259.179)
(-9.8812e-19 141.259 233.469)
(-6.80837e-19 129.085 214.84)
(5.84151e-19 122.673 198.849)
(2.57907e-18 115.328 186.213)
(4.51398e-18 109.497 172.877)
(7.03619e-18 102.991 160.196)
(1.00328e-17 96.8157 147.336)
(1.15834e-17 90.3713 134.643)
(9.5778e-18 83.7568 121.972)
(5.09488e-18 76.7863 109.444)
(3.16658e-18 69.5641 97.0073)
(9.52107e-18 61.7416 84.6829)
(2.94737e-17 53.6067 71.8517)
(7.27577e-17 43.6951 58.1956)
(1.6093e-16 33.1631 41.6879)
(3.23831e-16 14.9256 19.1849)
(2.83023e-16 -1.4399 -16.4258)
(3.89167e-20 139.078 240.892)
(2.22421e-19 174.848 289.193)
(3.00157e-19 154.617 265.211)
(3.17018e-19 145.934 239.073)
(1.74977e-19 134.097 224.704)
(-4.40212e-19 130.195 209.56)
(-1.16604e-18 122.685 197.747)
(-1.74127e-18 118.07 184.516)
(-2.28114e-18 112.032 172.055)
(-2.79206e-18 106.289 158.348)
(-2.9715e-18 99.3729 143.847)
(-2.55197e-18 91.6178 128.269)
(-1.81934e-18 82.8014 112.057)
(-1.65108e-18 73.2214 95.3334)
(-2.93319e-18 62.5811 78.3695)
(-6.3158e-18 51.2784 60.6784)
(-1.33152e-17 37.6279 42.1922)
(-2.52747e-17 23.5585 20.6147)
(-7.04487e-17 0.423846 -5.07597)
(2.74004e-16 -14.3015 -42.1042)
(-1.36339e-20 153.193 272.435)
(-6.61009e-20 176.253 289.637)
(-8.85232e-20 150.765 267.298)
(-9.35509e-20 148.603 246.481)
(-5.27171e-20 135.93 236.422)
(1.43696e-19 134.136 222.201)
(3.65936e-19 126.02 212.876)
(5.20339e-19 123.226 201.267)
(6.18359e-19 116.879 190.167)
(6.73054e-19 110.697 175.209)
(6.51425e-19 101.137 157.616)
(5.4029e-19 90.0804 137.247)
(4.12291e-19 77.2232 115.846)
(4.11528e-19 63.5454 93.6763)
(7.0044e-19 48.5308 70.8299)
(1.51812e-18 32.5148 46.5912)
(2.88369e-18 13.9813 21.329)
(4.49358e-18 -3.59972 -8.73551)
(-4.55792e-17 -29.7625 -35.4857)
(1.40031e-16 -30.52 -73.1051)
(4.35948e-21 156.226 285.6)
(1.9456e-20 163.915 272.769)
(2.51021e-20 141.099 260.371)
(2.63776e-20 141.052 243.653)
(1.19889e-20 126.59 235.168)
(-5.08352e-20 124.287 222.386)
(-1.12398e-19 114.765 215.543)
(-1.47565e-19 111.337 205.647)
(-1.68853e-19 102.082 194.949)
(-1.89055e-19 92.264 177.039)
(-1.94858e-19 76.9216 154.304)
(-1.6084e-19 60.5464 127.707)
(-9.889e-20 42.8262 101.072)
(-6.31706e-20 25.4117 74.3525)
(2.16744e-19 7.33427 47.0694)
(1.52247e-18 -10.2306 20.0641)
(1.39198e-18 -25.2919 -4.55765)
(-7.41893e-18 -36.8838 -27.6282)
(-1.92099e-17 -40.5037 -40.6587)
(7.94298e-19 -19.3619 -24.7231)
(-1.41439e-21 145.947 269.465)
(-5.49922e-21 152.309 255.299)
(-6.87437e-21 130.747 244.697)
(-6.86506e-21 129.337 226.594)
(1.38195e-22 113.591 217.948)
(2.01454e-20 109.666 204.451)
(3.57789e-20 98.3688 196.992)
(3.89131e-20 92.2135 186.499)
(2.5633e-20 80.5655 174.922)
(-7.08721e-21 67.8593 156.464)
(-3.73722e-20 50.8627 133.143)
(-2.03248e-21 33.4254 106.59)
(1.50302e-19 16.046 80.4682)
(3.26382e-19 0.445757 56.0329)
(1.34546e-19 -12.4257 34.8981)
(-1.0068e-18 -18.9507 21.2882)
(-3.23078e-18 -13.7062 23.6751)
(-5.61462e-18 7.27281 47.0829)
(-5.91724e-18 36.8819 80.3827)
(-2.19844e-18 40.0411 83.7718)
(3.98188e-22 138.397 256.797)
(1.37858e-21 152.179 247.894)
(1.65017e-21 126.141 234.318)
(1.52283e-21 128.367 212.034)
(-6.33812e-22 109.961 203.356)
(-5.42033e-21 108.205 185.429)
(-7.72512e-21 94.6925 175.429)
(-7.13828e-21 89.2496 161.241)
(-8.71166e-21 78.1616 149.477)
(-1.98102e-20 69.1026 133.991)
(-3.28511e-20 57.3296 116.67)
(-2.81164e-21 46.2873 96.7319)
(1.18509e-19 35.9272 77.2164)
(2.76842e-19 29.3412 61.9703)
(3.14785e-19 29.425 57.1433)
(2.09433e-19 38.0638 65.9444)
(2.13675e-19 51.309 82.6051)
(5.51785e-19 61.6315 99.2042)
(1.21452e-18 67.7769 105.365)
(1.33847e-18 49.7984 88.2199)
(-9.2526e-23 139.183 260.468)
(-3.0449e-22 158.671 252.127)
(-3.52136e-22 129.196 238.792)
(-3.26667e-22 135.024 214.567)
(1.23462e-22 116.024 206.387)
(1.17412e-21 116.37 187.444)
(1.72182e-21 103.731 176.455)
(1.63381e-21 99.5851 161.058)
(1.91387e-21 90.9002 148.958)
(3.91307e-21 85.3889 136.313)
(6.61431e-21 79.4129 125.314)
(4.3038e-21 74.883 114.703)
(-6.98009e-21 70.8315 104.405)
(-1.73061e-20 67.2979 93.9743)
(-5.28712e-21 63.8669 83.6019)
(4.05472e-20 60.2534 74.3746)
(1.00388e-19 56.192 67.628)
(1.24051e-19 51.4857 63.2537)
(4.67659e-20 41.6556 55.5314)
(-2.35284e-19 23.0798 30.8257)
(1.92439e-23 142.766 270.929)
(6.01737e-23 163.286 256.183)
(6.24041e-23 132.03 246.062)
(5.5512e-23 140.11 222.195)
(-1.07068e-23 120.928 214.227)
(-1.60679e-22 121.592 196.319)
(-1.88149e-22 110.405 185.493)
(-7.48663e-23 106.405 171.345)
(3.4782e-23 99.2322 159.334)
(1.14519e-22 93.7743 146.74)
(6.77196e-22 87.9706 134.827)
(2.60557e-21 82.6132 123.268)
(5.41007e-21 77.3498 112.179)
(5.57135e-21 72.0993 101.055)
(-1.63116e-21 65.9956 89.2593)
(-1.79734e-20 58.7281 75.652)
(-4.00664e-20 48.4709 60.0479)
(-6.27444e-20 37.6324 43.0992)
(-8.56461e-20 17.8393 20.0829)
(-1.2955e-19 0.0745267 -16.9476)
(-3.46905e-24 142.725 278.222)
(-1.18175e-23 163.34 253.875)
(-1.49312e-23 130.329 249.409)
(-1.31434e-23 140.741 226.107)
(1.7605e-23 120.618 219.013)
(8.98506e-23 121.715 202.035)
(1.5426e-22 110.733 191.96)
(2.04107e-22 107.159 178.782)
(2.80895e-22 100.381 167.806)
(3.91177e-22 95.6577 156.241)
(3.79953e-22 90.4966 145.337)
(-2.78159e-23 85.9247 134.356)
(-9.0559e-22 81.0928 123.137)
(-1.87376e-21 75.5687 110.339)
(-2.39201e-21 67.5772 94.4813)
(-2.21996e-21 56.3538 73.4147)
(-9.34224e-22 39.3612 47.1684)
(3.38302e-21 23.3226 22.6595)
(2.76686e-21 -4.17752 -5.04541)
(-9.45008e-20 -15.9429 -44.7236)
(7.63142e-25 134.262 274.856)
(1.31189e-24 158.795 248.457)
(-1.21821e-24 122.749 246.815)
(-1.56426e-24 130.683 226.412)
(6.4297e-24 112.405 219.141)
(2.51649e-23 110.193 205.1)
(5.38763e-23 100.364 195.45)
(9.70835e-23 95.341 184.158)
(1.91429e-22 88.7084 174.274)
(3.85863e-22 83.689 164.3)
(6.26029e-22 78.6898 155.04)
(6.0935e-22 74.34 145.804)
(-2.38575e-22 69.5231 135.616)
(-2.56567e-21 62.9092 121.778)
(-6.79639e-21 52.0552 100.691)
(-1.27866e-20 34.7519 68.0311)
(-1.59361e-20 5.83749 18.2555)
(2.80799e-21 -24.274 -44.3629)
(-2.45942e-21 -31.8784 -42.0477)
(-6.76168e-20 -25.8563 -55.9399)
(-4.22281e-26 109.331 255.429)
(-3.75414e-25 148.429 226.837)
(-1.58769e-24 108.209 229.809)
(-2.51132e-24 113.827 215.003)
(-1.52758e-25 97.7727 209.519)
(4.02104e-24 92.7393 200.208)
(5.28933e-24 83.6556 192.967)
(1.18305e-23 77.1799 185.112)
(5.93561e-23 70.3729 177.753)
(1.91925e-22 64.4719 170.436)
(3.85407e-22 58.9268 163.362)
(4.58744e-22 53.792 156.221)
(6.57647e-23 48.488 148.161)
(-1.20381e-21 42.1183 137.306)
(-3.64491e-21 33.5621 121.043)
(-7.06373e-21 22.0658 97.2624)
(-1.03115e-20 8.54388 65.7287)
(-1.19707e-20 -3.82079 29.1135)
(-1.36537e-20 -12.4077 -2.57914)
(-1.79811e-20 -12.6047 -19.2668)
(2.22707e-26 35.9112 158.02)
(1.66905e-26 78.3748 130.697)
(-2.49478e-25 52.6905 138.852)
(-1.0737e-24 52.5224 134.838)
(-2.79547e-24 44.0091 134.88)
(-6.99195e-24 39.5766 133.309)
(-1.72448e-23 34.4971 132.12)
(-3.5594e-23 30.4958 130.586)
(-5.24598e-23 26.8849 128.943)
(-3.52727e-23 23.9023 127.104)
(7.07365e-23 21.4755 125.155)
(3.14452e-22 19.7171 123.232)
(6.89935e-22 18.7366 121.567)
(1.11129e-21 18.6774 120.298)
(1.45093e-21 19.7451 119.132)
(1.5995e-21 21.7831 117.391)
(1.48224e-21 24.2927 114.174)
(1.09997e-21 29.5223 106.536)
(6.36512e-22 33.3243 91.9484)
(2.85662e-22 8.06787 67.371)
(-3.51352e-26 -35.901 157.993)
(3.46059e-26 -78.3707 130.67)
(2.88283e-25 -52.6899 138.825)
(9.29025e-25 -52.5272 134.808)
(2.11805e-24 -44.0173 134.848)
(3.81994e-24 -39.5889 133.273)
(5.51415e-24 -34.5127 132.081)
(5.97631e-24 -30.5146 130.543)
(4.29184e-24 -26.9061 128.895)
(3.83335e-24 -23.9257 127.051)
(1.85608e-23 -21.5029 125.101)
(7.52954e-23 -19.7532 123.186)
(1.99966e-22 -18.787 121.538)
(3.82646e-22 -18.7437 120.281)
(5.52746e-22 -19.8216 119.104)
(6.30244e-22 -21.8595 117.325)
(6.31867e-22 -24.3607 114.064)
(6.3746e-22 -29.5763 106.409)
(5.81062e-22 -33.3533 91.8471)
(2.67259e-22 -8.05222 67.3449)
(7.79296e-26 -109.315 255.386)
(1.03985e-25 -148.391 226.8)
(3.11387e-25 -108.176 229.772)
(3.68731e-25 -113.783 214.97)
(-1.42598e-24 -97.7225 209.489)
(-7.44478e-24 -92.6796 200.181)
(-1.89739e-23 -83.5864 192.945)
(-3.19248e-23 -77.1001 185.095)
(-2.93145e-23 -70.2818 177.744)
(1.64546e-23 -64.3691 170.436)
(1.08988e-22 -58.8085 163.371)
(1.61873e-22 -53.6454 156.221)
(-2.46327e-23 -48.29 148.111)
(-6.36826e-22 -41.8539 137.16)
(-1.65515e-21 -33.2563 120.812)
(-3.04751e-21 -21.8049 97.0647)
(-5.49841e-21 -8.49463 65.7349)
(-1.02582e-20 3.48576 29.5773)
(-1.59726e-20 11.6228 -1.39556)
(-1.34745e-20 12.0842 -18.3035)
(-3.55114e-25 -134.266 274.837)
(6.69225e-26 -158.761 248.488)
(1.41607e-24 -122.75 246.834)
(1.99456e-24 -130.636 226.465)
(-2.2671e-24 -112.378 219.2)
(-1.56309e-23 -110.135 205.187)
(-3.94198e-23 -100.309 195.55)
(-6.68366e-23 -95.2648 184.283)
(-7.17619e-23 -88.6276 174.421)
(-1.5223e-23 -83.5989 164.483)
(9.48192e-23 -78.5962 155.259)
(1.15115e-22 -74.2227 146.04)
(-2.15802e-22 -69.3336 135.786)
(-1.08436e-21 -62.5662 121.755)
(-2.31531e-21 -51.5079 100.342)
(-3.28066e-21 -33.7726 67.0995)
(-5.41223e-21 -4.39438 16.0491)
(-2.06837e-20 24.7121 -44.0912)
(-4.04739e-20 32.1437 -42.3701)
(-3.24606e-20 25.9389 -55.4147)
(1.45525e-24 -142.889 278.571)
(1.12872e-24 -163.436 254.096)
(1.92693e-25 -130.444 249.735)
(-2.95024e-24 -140.881 226.465)
(-1.30195e-23 -120.706 219.408)
(-3.52205e-23 -121.845 202.439)
(-7.11304e-23 -110.814 192.403)
(-1.13579e-22 -107.261 179.231)