/*--------------------------------*- C++ -*----------------------------------*\
| =========                 |                                                 |
| \\      /  F ield         | OpenFOAM: The Open Source CFD Toolbox           |
|  \\    /   O peration     | Version:  4.1                                   |
|   \\  /    A nd           | Web:      www.OpenFOAM.org                      |
|    \\/     M anipulation  |                                                 |
\*---------------------------------------------------------------------------*/
FoamFile
{
    version     2.0;
    format      ascii;
    class       volScalarField;
    location    "24";
    object      p;
}
// * * * * * * * * * * * * * * * * * * * * * * * * * * * * * * * * * * * * * //

dimensions      [0 2 -2 0 0 0 0];

internalField   nonuniform List<scalar> 
1280
(
0.330715
1.45415
1.9077
1.86685
2.59543
3.31633
3.09897
2.93931
3.00383
3.43144
2.62765
2.54559
2.58079
0.849904
0.570625
-0.00523545
-3.49789
-2.8261
-7.33208
-12.9333
-13.2465
-0.878141
22.4281
36.1831
39.4137
42.2896
31.6763
28.7777
31.1993
31.108
30.4987
29.7738
28.5641
26.9544
25.1244
22.9782
20.8457
18.1405
16.2012
11.7497
3.89132
12.9357
16.5387
19.8037
27.5312
27.3776
27.4252
27.4377
27.633
27.7986
27.7664
27.8322
27.5919
27.3803
27.0721
28.3275
14.5704
10.1426
5.12889
-9.83987
2.85116
7.52804
9.61326
12.5265
14.8472
17.2461
19.3343
21.2445
22.7627
23.7855
24.7461
25.4234
23.1048
16.4206
42.1584
40.4974
38.3687
25.0369
3.49759
-7.89387
-8.35649
1.71367
12.4903
17.2958
20.0438
23.7661
24.6219
23.8338
22.405
22.4115
19.0254
17.8512
16.1606
10.8091
9.40796
9.69248
6.34883
-1.82209
-4.39916
3.47582
-0.140788
-0.0437629
-0.325426
-0.631655
-1.35748
-2.06169
-3.57428
-2.3281
0.198836
0.222114
0.88309
1.49556
1.96974
3.05699
4.8194
5.93909
5.23569
2.12386
1.10979
-0.420113
-0.235929
-0.511313
-0.715982
-1.12582
-1.28289
-1.72908
-1.19071
0.238225
0.150115
0.770117
2.11626
4.99956
9.52216
14.3229
17.5376
15.0656
7.38591
3.96398
-0.418709
-0.0656672
-0.401208
-0.52119
-0.886627
-0.976161
-1.22117
-0.854998
0.384202
0.208363
0.972967
2.73187
6.58116
12.5033
18.894
23.8046
22.0286
11.6121
6.24135
-0.463864
0.0621422
-0.347365
-0.46119
-0.911729
-1.14075
-1.49712
-1.06684
0.430736
0.338447
1.40056
3.57699
8.27226
15.5043
23.6771
30.7017
30.2104
16.4613
8.14765
-0.555389
0.152008
-0.303341
-0.419731
-0.902687
-1.24658
-1.62824
-1.24499
0.226843
0.531587
1.89548
4.40298
10.0551
18.747
28.8843
38.2721
38.6913
21.091
8.99472
-0.646024
0.275854
-0.2156
-0.362204
-0.880961
-1.38962
-1.84621
-1.58069
-0.203065
0.794996
2.51783
5.17199
11.6095
21.4977
33.4419
45.6187
45.8123
23.126
1.46238
-0.747171
0.430155
-0.0924034
-0.311283
-0.877155
-1.59644
-2.20302
-2.09923
-0.651568
0.92012
3.21125
5.86482
12.8972
23.6833
37.2748
52.008
50.9365
21.2962
-8.6978
-0.862617
0.627007
0.0789872
-0.266892
-0.888416
-1.79878
-2.6065
-2.68655
-1.06161
0.851504
3.79211
6.44831
13.8585
25.1691
39.7269
60.2869
53.8058
30.7346
1.68003
-0.989144
0.882419
0.300838
-0.23703
-0.920173
-1.99266
-3.02244
-3.27356
-1.45512
0.583938
4.05729
6.80799
14.3803
25.7502
40.7424
61.0631
51.631
41.7044
42.8862
-1.12481
1.22727
0.608959
-0.193773
-0.929553
-2.20815
-3.4737
-3.84574
-1.88478
-0.281219
4.04158
6.75837
14.3714
25.249
38.9255
52.0943
47.4359
45.3055
36.2875
-1.25119
1.70171
0.9881
-0.240427
-1.11636
-2.53408
-4.01454
-4.48146
-2.55278
-1.71405
3.63387
6.32762
13.864
23.9088
35.7721
43.8362
42.3488
46.3188
34.2065
-1.34376
2.25601
1.32579
-0.345672
-1.30537
-2.99454
-4.66013
-5.28809
-4.02993
-2.80579
2.73132
5.62866
12.9031
21.9953
32.2159
38.8228
40.7052
43.4317
39.548
-1.34105
2.95964
1.66224
-0.577269
-1.82819
-3.77458
-5.60085
-6.43226
-5.78893
-3.63066
1.59971
4.78449
11.6064
19.6854
27.7699
29.1551
22.1574
18.1587
12.8775
-1.10366
3.93569
1.79953
-1.37778
-3.09487
-4.74799
-6.51363
-7.58436
-6.87675
-4.35811
0.532581
3.79537
9.9207
16.597
21.3021
13.601
1.98107
4.48325
12.693
-0.745184
4.34749
1.14267
-2.34762
-4.11524
-5.24427
-7.10746
-8.42811
-7.35256
-4.73191
-0.342775
2.82507
8.19198
13.347
15.3261
4.94008
8.41926
6.36175
12.0608
0.00462225
5.66864
1.1446
-2.99832
-4.74291
-5.86897
-7.60619
-8.2959
-7.10032
-4.77919
-1.05225
1.76269
6.09532
9.67773
9.82178
-2.42863
4.70366
3.57851
8.05488
0.389431
5.27943
1.10224
-3.12637
-4.71129
-5.59222
-6.90024
-7.28027
-6.33054
-4.49185
-1.47934
0.966167
4.62721
7.47503
6.66593
0.051799
0.82016
4.48624
6.62441
0.79793
5.23955
2.03332
-2.17394
-3.98113
-4.70918
-5.76827
-6.04201
-5.31868
-3.88476
-1.59773
0.110425
2.24527
3.42917
1.66226
5.2308
-0.569708
3.39868
4.35061
0.105792
2.49432
0.898327
-1.7682
-2.93043
-3.21676
-3.83874
-3.94708
-3.51627
-2.75608
-1.52305
-0.38983
1.96346
4.71755
1.62067
3.66891
-2.13707
2.17154
2.63044
1.35551
4.01512
2.44371
0.182047
-1.34369
-1.83872
-2.2962
-2.43816
-2.16319
-1.54979
-0.627382
-0.18667
-1.03664
-4.0571
-7.39016
-0.689455
-2.80382
-0.712243
0.427643
17
19.6606
23.2831
26.0563
27.3616
28.0699
27.9345
27.6019
27.3275
27.1543
27.0441
27.0411
27.1536
27.3928
27.7387
28.2293
28.7987
29.58
30.2654
31.26
-50.3846
-47.8302
-43.1667
-38.6789
-34.8918
-31.5783
-28.3774
-25.4185
-22.5834
-19.8521
-17.1645
-14.4793
-11.7939
-9.10224
-6.48585
-3.92753
-1.58533
0.792225
2.67891
5.69916
-32.8208
-36.5177
-40.0594
-43.0221
-45.6379
-48.5469
-51.1641
-53.7343
-55.9464
-57.7748
-59.036
-59.6084
-59.3573
-58.1717
-56.0992
-53.2309
-50.0933
-46.822
-44.4744
-40.4984
-15.9897
-22.5063
-26.2105
-30.7004
-34.6009
-39.0735
-43.2838
-47.6753
-51.9231
-56.1914
-60.3452
-64.3436
-68.009
-71.1165
-73.3986
-74.8987
-75.5836
-75.3695
-75.2539
-72.9458
40.9973
34.6818
31.3714
26.8735
23.3015
18.9381
14.8907
10.6925
6.90535
3.38057
0.383507
-2.09191
-3.93004
-5.12816
-5.67894
-5.83485
-6.03728
-6.22725
-7.71709
-11.7673
85.8738
85.2205
85.2992
84.928
84.88
84.3515
83.8941
82.8145
81.3497
79.0603
75.8429
71.387
65.6504
58.9945
52.2848
46.5036
42.4422
40.8142
40.7243
37.0167
61.1543
63.038
63.8755
64.7979
65.97
66.7976
68.0138
68.9718
70.0409
70.9853
71.8558
72.5331
72.8592
72.63
71.7085
70.0971
68.4466
67.0402
66.9256
66.2281
48.6248
50.8705
52.3158
53.258
54.9223
55.7262
57.0621
57.9228
58.824
59.5077
60.0651
60.539
61.0587
61.7651
62.8258
64.2226
65.8141
67.4036
68.5439
69.6328
22.6173
24.9084
26.7942
27.6278
29.8117
30.7246
32.5244
33.7929
35.2893
36.692
38.0935
39.4834
40.8545
42.2414
43.6543
45.1911
46.757
48.561
49.9705
51.8442
-0.207049
1.34793
3.48531
3.83457
6.32606
6.93944
8.97465
10.1505
11.8107
13.2787
14.8314
16.3872
17.9562
19.569
21.1899
22.9034
24.5571
26.4322
27.8553
30.104
-26.4216
-26.7018
-24.6169
-25.3331
-23.0852
-23.4172
-21.6496
-21.217
-19.8407
-18.8595
-17.5549
-16.2303
-14.7533
-13.1196
-11.3624
-9.38256
-7.38053
-4.93097
-2.97187
0.238822
-36.3206
-39.5246
-38.7277
-41.4286
-41.0047
-43.4445
-43.6581
-45.5549
-46.2713
-47.65
-48.4461
-49.2067
-49.4879
-49.325
-48.6592
-47.5703
-46.3333
-44.6136
-43.2894
-40.1096
-9.66
-13.9943
-13.9564
-17.9292
-18.5642
-22.2452
-23.7676
-27.1411
-29.5015
-32.7782
-35.6895
-38.8743
-41.7696
-44.4059
-46.5079
-48.2864
-49.5286
-49.976
-50.8138
-49.6965
26.4279
23.9451
25.1057
22.2056
23.4775
21.14
21.6739
20.1468
19.9318
18.8906
18.2717
17.4021
16.5949
15.5853
14.2897
12.5013
10.3552
8.41994
6.15951
2.84668
27.2155
26.8901
29.518
27.9021
31.0784
30.0882
32.3383
32.4094
33.7434
34.2864
35.0738
35.5508
35.9325
36.0913
36.0752
35.8474
35.4785
34.9789
34.6276
33.6997
8.46825
7.42577
10.6167
8.14225
11.8337
10.752
13.2044
13.8258
15.6169
17.0755
18.8345
20.6023
22.4073
24.0712
25.5011
26.5088
27.3706
28.6199
29.8393
31.6028
11.9584
8.3827
10.9875
4.98983
5.85036
1.80818
0.621671
-1.8952
-3.58505
-5.32528
-6.73084
-7.8994
-8.78463
-9.33623
-9.50053
-9.0519
-7.88661
-5.77948
-3.96215
-1.61997
11.0841
3.88941
11.8956
4.70544
6.45283
2.82723
1.24855
-1.61094
-4.1991
-7.08192
-9.95578
-12.8899
-15.7987
-18.6123
-21.1073
-22.9799
-23.5431
-22.8363
-22.3583
-21.1275
32.4569
9.52582
17.5374
6.1996
3.29347
-3.54663
-8.63844
-14.0349
-18.6831
-22.8012
-26.1395
-28.6462
-30.2204
-30.7763
-30.2251
-28.4714
-25.3331
-22.0088
-19.691
-17.7452
722.885
639.956
590.787
534.432
485.341
437.954
393.899
352.29
313.147
276.192
241.271
208.191
176.748
146.903
118.775
91.6194
65.8441
45.742
22.0931
-15.2447
731.029
648.1
598.932
542.576
493.485
446.098
402.042
360.433
321.289
284.335
249.412
216.332
184.888
155.044
126.915
99.7602
73.9861
53.8851
30.2369
-7.10121
40.6027
17.6705
25.682
14.3436
11.4372
4.59666
-0.495452
-5.89224
-10.5408
-14.6591
-17.9977
-20.5045
-22.0788
-22.6348
-22.084
-20.3293
-17.1885
-13.8675
-11.5533
-9.60826
19.2062
12.0096
20.0146
12.8229
14.5686
10.9413
9.36091
6.49959
3.90965
1.02494
-1.85077
-4.78679
-7.69754
-10.5127
-13.0089
-14.8815
-15.4422
-14.7366
-14.2612
-13.0302
20.0514
16.4752
19.0805
13.0817
13.943
9.90005
8.7133
6.19614
4.50591
2.76547
1.35964
0.190971
-0.694526
-1.24573
-1.41001
-0.959699
0.207958
2.31566
4.13283
6.47602
16.5918
15.5475
18.7406
16.2633
19.9557
18.8724
21.3233
21.9434
23.7316
25.1876
26.9425
28.7057
30.5062
32.1633
33.5911
34.5976
35.4663
36.728
37.9531
39.7199
35.3255
35.0076
37.6374
36.0258
39.2049
38.2193
40.4725
40.5496
41.8887
42.4395
43.235
43.7218
44.1143
44.284
44.2798
44.0636
43.7094
43.2167
42.8692
41.9451
34.7366
32.265
33.4309
30.539
31.8206
29.4914
30.0357
28.5174
28.3114
27.2777
26.6651
25.7998
24.9941
23.982
22.6779
20.8761
18.716
16.7727
14.5136
11.1904
-1.3675
-5.70713
-5.67232
-9.6513
-10.2914
-13.9784
-15.507
-18.8868
-21.2537
-24.5365
-27.4533
-30.642
-33.5395
-36.1755
-38.2765
-40.0539
-41.2929
-41.7396
-42.5806
-41.4767
-28.183
-31.3997
-30.6087
-33.3164
-32.901
-35.3467
-35.5687
-37.4721
-38.196
-39.5816
-40.3844
-41.151
-41.4375
-41.28
-40.621
-39.5413
-38.3138
-36.6016
-35.2814
-32.1054
-18.3939
-18.6828
-16.5998
-17.3206
-15.0768
-15.4134
-13.6503
-13.2231
-11.8517
-10.8765
-9.5777
-8.2591
-6.78774
-5.15895
-3.40556
-1.42758
0.574147
3.02639
4.98803
8.20231
7.8223
9.37559
11.5142
11.8626
14.3548
14.9679
17.0039
18.1799
19.841
21.3099
22.8638
24.421
25.9918
27.6069
29.2302
30.9466
32.6033
34.4813
35.9067
38.1599
30.6756
32.9664
34.8526
35.6861
37.8707
38.784
40.5845
41.8534
43.3501
44.7527
46.1539
47.5434
48.9143
50.3014
51.7148
53.252
54.8176
56.6207
58.0292
59.9036
56.6197
58.8669
60.3121
61.2532
62.9167
63.7189
65.0534
65.9135
66.8158
67.5045
68.0717
68.5617
69.1021
69.83
70.906
72.3072
73.8955
75.4814
76.6187
77.7136
69.3097
71.1999
72.0429
72.9723
74.1524
74.9906
76.2196
77.1937
78.2811
79.243
80.1277
80.8088
81.123
80.8672
79.9021
78.2516
76.5917
75.1876
75.0756
74.3829
93.9608
93.3293
93.4248
93.0682
93.0256
92.4998
92.0405
90.9543
89.4794
87.1758
83.9425
79.4731
73.7318
67.0799
60.3778
54.6107
50.5547
48.9033
48.807
45.1513
50.1944
43.8956
40.5198
36.0042
32.4206
28.0546
24.0011
19.801
16.0187
12.5058
9.53022
7.08875
5.29273
4.13561
3.61108
3.46732
3.29639
3.13229
1.68623
-2.30592
-6.21917
-12.6771
-16.5594
-21.0897
-25.0113
-29.4745
-33.6497
-37.9743
-42.1345
-46.3089
-50.3786
-54.3115
-57.935
-61.0237
-63.3063
-64.7903
-65.4374
-65.2319
-65.1067
-62.7924
-21.0518
-25.0844
-28.9464
-31.9152
-34.5955
-37.5501
-40.201
-42.7918
-45.0311
-46.8968
-48.2114
-48.847
-48.6658
-47.5505
-45.5469
-42.7407
-39.6576
-36.4357
-34.1443
-30.2814
-47.2678
-44.4247
-38.9176
-33.5812
-29.1976
-25.4042
-21.829
-18.5625
-15.4797
-12.5584
-9.72443
-6.92926
-4.1616
-1.4088
1.25312
3.84414
6.20327
8.58775
10.4677
13.481
32.9672
35.7712
39.3168
41.7981
42.7715
43.1288
42.7032
42.0842
41.4573
40.9652
40.5373
40.2172
40.0174
39.9442
39.988
40.1803
40.4859
41.0074
41.5155
42.301
)
;

boundaryField
{
    outletWall
    {
        type            fixedValue;
        value           uniform 0;
    }
    fineWalls
    {
        type            zeroGradient;
    }
    fineFrontAndBack
    {
        type            zeroGradient;
    }
    fineplugLeft
    {
        type            cyclicAMI;
        value           nonuniform List<scalar> 
20
(
27.3579
27.4525
27.2921
27.2081
27.1791
27.2158
27.3051
27.4357
27.5877
27.735
27.945
28.1018
27.8371
28.3599
30.9138
29.7721
28.0817
23.1121
15.5528
10.9507
)
;
    }
    fineplugRight
    {
        type            cyclicAMI;
        value           nonuniform List<scalar> 
20
(
34.411
34.718
34.7286
34.894
35.1137
35.4396
35.8222
36.2629
36.7263
37.1869
37.7214
38.2505
38.2883
39.7147
42.9347
42.3167
41.1122
36.4608
29.3165
24.795
)
;
    }
    inletOutletLeft
    {
        type            cyclicAMI;
        value           nonuniform List<scalar> 
20
(
27.3579
27.4525
27.2921
27.2081
27.1791
27.2158
27.3051
27.4357
27.5877
27.735
27.945
28.1018
27.8371
28.3599
30.9138
29.7721
28.0817
23.1121
15.5528
10.9507
)
;
    }
    inletLeft
    {
        type            zeroGradient;
    }
    inletWallsLeft
    {
        type            zeroGradient;
    }
    inletFacesLeft
    {
        type            zeroGradient;
    }
    inletOutletRight
    {
        type            cyclicAMI;
        value           nonuniform List<scalar> 
20
(
34.411
34.718
34.7286
34.894
35.1137
35.4396
35.8222
36.2629
36.7263
37.1869
37.7214
38.2505
38.2883
39.7147
42.9347
42.3167
41.1122
36.4608
29.3165
24.795
)
;
    }
    inletRight
    {
        type            zeroGradient;
    }
    inletWallsRight
    {
        type            zeroGradient;
    }
    inletFacesRight
    {
        type            zeroGradient;
    }
}


// ************************************************************************* //
