/*--------------------------------*- C++ -*----------------------------------*\
| =========                 |                                                 |
| \\      /  F ield         | OpenFOAM: The Open Source CFD Toolbox           |
|  \\    /   O peration     | Version:  4.1                                   |
|   \\  /    A nd           | Web:      www.OpenFOAM.org                      |
|    \\/     M anipulation  |                                                 |
\*---------------------------------------------------------------------------*/
FoamFile
{
    version     2.0;
    format      ascii;
    class       surfaceScalarField;
    location    "24";
    object      phi;
}
// * * * * * * * * * * * * * * * * * * * * * * * * * * * * * * * * * * * * * //

dimensions      [0 3 -1 0 0 0 0];

internalField   nonuniform List<scalar> 
2360
(
-2626.87
-707.05
-1919.82
-707.051
-707.05
1367.01
-2074.06
1367.01
1367.01
1367.01
3436.29
-2069.29
3436.3
3436.29
5761.29
-2325
5761.29
5761.29
8312.52
-2551.23
8312.53
8312.52
12560.4
-4247.87
12560.4
12560.4
12919
14298
16159.3
17970
19586.9
21030.4
15252.2
7126.2
16495.7
17651.5
18721.2
19705.1
20604.1
21420.2
22156.1
22815.2
23399.5
23910.6
24345.6
24699.9
24934.2
10337.2
14597
10337.2
10337.2
10337.2
-238.923
10576.1
-238.922
-238.92
-238.92
210.627
-449.546
210.631
210.632
-1139.26
1349.89
-1139.26
-1139.26
-1139.26
-13525.2
12385.9
-13525.2
-13525.2
-13525.2
-27206.1
13680.9
-26933.8
-26558.6
-26108.4
-25587.2
-24996.4
-24334
-23596.3
-22779.5
-21880.2
-20896.1
-19826.9
-18672.7
-17432
-21824.8
5737.1
-20389.5
-18784.3
-16991.3
-15162.8
-13841.3
-13443.2
-13443.2
-13443.2
-5479.06
-7964.16
-5479.06
-5479.06
2013.23
-7492.29
2013.23
2013.23
7643.33
-5630.09
7643.33
7643.33
11930.4
-4287.12
11930.4
11930.4
11930.4
15550.9
-3620.47
15550.9
15550.9
19291.2
-3740.24
-1900.2
8568.47
-2006.3
11420.1
-2018.8
13423.5
-1961.3
15010.9
-1719.06
16972.5
-1262.14
17949.3
-343.525
17840.5
388.562
13949.7
253.42
6464.03
-198.494
2664.27
-533.574
11174.5
-725.2
18875.8
-606.845
25102.6
-191.618
27582.9
444.563
25180.4
1346.81
20391.2
2260.26
13748.1
3114.21
3140.96
-3326.52
-1897.84
8716.72
-2002.75
11525
-2009.02
13429.8
-1946.18
14948.1
-1707
16733.3
-1247.57
17489.9
-344.217
16937.2
353.957
13251.5
227.112
6590.88
-259.576
3150.96
-627.296
11542.2
-854.241
19102.8
-759.75
25008.1
-345.463
27168.6
338.075
24496.9
1421.94
19307.4
2866.56
12303.5
3490.84
2516.68
-3456.15
-1901.14
8879.48
-2003.18
11627.1
-1998.65
13425.3
-1928.19
14877.6
-1690.72
16495.9
-1223.08
17022.3
-330.404
16044.5
331.925
12589.2
159.83
6762.97
-374.1
3684.89
-772.432
11940.6
-1049.87
19380.2
-990.998
24949.2
-589.333
26766.9
139.961
23767.6
1430.99
18016.4
3504.99
10229.5
4601.33
1420.34
-3141.94
-1918.5
9054.52
-2007.6
11716.2
-1982.31
13400
-1894.63
14790
-1649.56
16250.8
-1169.63
16542.4
-318.334
15193.2
240.525
12030.3
-40.0664
7043.56
-589.98
4234.8
-952.789
12303.4
-1287.78
19715.2
-1281.52
24943
-916.944
26402.4
-178.086
23028.7
1318.1
16520.2
4072.87
7474.68
5898.95
-405.733
-2873.09
-1952.54
9242.71
-2021.17
11784.8
-1960.39
13339.2
-1838.4
14668
-1571.24
15983.6
-1088.81
16059.9
-329.462
14433.8
59.3213
11641.5
-357.434
7460.32
-850.78
4728.15
-1150.76
12603.4
-1561.98
20126.4
-1634.96
25016
-1336.21
26103.6
-632.572
22325.1
1083.63
14804
4693.36
3864.95
7422.38
-3134.75
-2943
-2012.23
9443.88
-2052.37
11824.9
-1936.38
13223.2
-1748.53
14480.1
-1427.66
15662.8
-951.129
15583.4
-343.783
13826.5
-90.6708
11388.4
-508.221
7877.87
-974.642
5194.57
-1336.33
12965
-1860.69
20650.8
-2044.82
25200.1
-1848.83
25907.6
-1232.98
21709.2
679.106
12891.9
5216.53
-672.469
8003.82
-5922.04
-2903.33
-2107.99
9658.6
-2111.92
11828.9
-1920.93
13032.2
-1632.61
14191.8
-1208.5
15238.6
-702.283
15077.2
-239.233
13363.5
14.3161
11134.9
-130.365
8022.55
-743.365
5807.57
-1483.13
13704.8
-2184.87
21352.5
-2506.5
25521.7
-2468.11
25869.2
-2001.79
21242.9
1025.52
9864.58
4078.25
-3725.2
2352.86
-4196.65
5186.62
-2250.81
9889.81
-2214.47
11792.5
-1930.36
12748.1
-1510.44
13771.9
-934.286
14662.5
-305.396
14448.3
163.057
12895
581.724
10716.2
856.036
7748.24
-153.611
6817.22
-1619.21
15170.4
-2552.04
22285.3
-3019.69
25989.4
-3154.28
26003.8
-2815.63
20904.3
-2188.91
9237.86
-5354.8
-559.312
-10506.3
954.816
8361.28
-2458.7
10148.8
-2393.47
11727.3
-2001.42
12356.1
-1407.49
13178
-614.849
13869.9
255.972
13577.5
971.4
12179.6
1707.31
9980.29
2121.62
7333.92
371.165
8567.67
-1871.61
17413.2
-2982.38
23396.1
-3575.86
26582.9
-3840.46
26268.4
-3976.89
21040.7
-6618.64
11879.6
-12314.4
5136.48
-14802.2
3442.58
5945.01
-2767.17
10459.9
-2685.82
11645.9
-2129.14
11799.4
-1287.94
12336.8
-245.631
12827.5
896.636
12435.2
2011.14
11065.1
3105.31
8886.11
3082.93
7356.3
303.225
11347.4
-2352.05
20068.5
-3484.76
24528.8
-4157.1
27255.2
-4476.17
26587.5
-4911.09
21475.6
-7616.1
14584.6
-10352.6
7873.03
-7833.96
923.892
-539.05
-3209.23
10842
-3069.07
11505.8
-2203.19
10933.5
-1021.78
11155.4
276.468
11529.3
1667.58
11044.1
3136.74
9595.92
4227.39
7795.46
3029.89
8553.8
-597.054
14974.3
-3001.81
22473.2
-4056.33
25583.3
-4755.72
27954.6
-5070.86
26902.6
-5544
21948.7
-7233.16
16273.8
-7970.58
8610.44
-6137.25
-909.44
-7125.84
-3756.22
11260.1
-3391.45
11141
-2027.09
9569.15
-484.855
9613.12
1131.75
9912.69
2805.12
9370.72
4259.09
8141.94
4420.57
7633.99
1652.44
11321.9
-2012.48
18639.2
-3703.43
24164.2
-4675.08
26555
-5356.19
28635.7
-5731.48
27277.9
-6690.48
22907.7
-9365.79
18949.1
-12711.3
11956
-13806.1
185.391
-10355.9
-4272.44
11583.9
-3353.39
10222
-1274.64
7490.4
637.41
7701.07
2415.34
8134.77
3944.15
7841.9
4526.62
7559.48
2859.48
9301.12
-741.228
14922.6
-3369.42
21267.4
-4403
25197.7
-5305.78
27457.8
-5958.81
29288.7
-6642.78
27961.9
-8642.64
24907.6
-12043
22349.5
-13959.9
13872.9
-13691.2
-83.3565
-9450.08
-4561.2
11633.4
-2741.67
8402.42
129.122
4619.61
2062.7
5767.49
3251.06
6946.4
3733.38
7359.58
2635.14
8657.71
-286.173
12222.4
-3098.12
17734.6
-4400.81
22570.1
-5093.81
25890.7
-5919.18
28283.1
-6581.6
29951.1
-7720.87
29101.2
-10176.1
27362.8
-11379.4
23552.7
-6104.93
8598.45
-1106.8
-5081.48
-3430.69
-4651.42
11416.9
-2312.73
6063.73
348.72
1958.16
1407.52
4708.7
1514.22
6839.7
652.578
8221.22
-1297.71
10608
-3459.09
14383.8
-4703.66
18979.2
-5227.84
23094.3
-5792.86
26455.8
-6523.28
29013.6
-7234.13
30662
-8700.16
30567.2
-10732.6
29395.2
-9364.75
22184.9
-2580.96
1814.66
2310.88
-9973.33
-5367.67
-5241.79
11476
-4397.18
5219.12
-3464.8
1025.78
-2967.57
4211.47
-3066.46
6938.59
-3760.09
8914.85
-4695.62
11543.5
-5438.77
15127
-5770.39
19310.8
-6030.6
23354.5
-6507.86
26933
-7126.35
29632.1
-7893.51
31429.2
-9359.92
32033.6
-10139.1
30174.4
-5889.99
17935.7
-139.347
-3935.98
1162.63
-11275.3
-6756.28
-6240.01
12166.8
-7043.06
6022.17
-7099.19
1081.9
-6594.74
3707.02
-6367.69
6711.54
-6436.05
8983.21
-6566.1
11673.6
-6665.81
15226.7
-6721.91
19366.9
-6898.34
23530.9
-7267.33
27302
-7792.95
30157.7
-8600.83
32237
-9731.52
33164.3
-9001.19
29444.1
-3108.21
12042.8
1237.54
-8281.72
1417.07
-11454.8
-7664.21
-7082.66
13376.5
-8975.13
7914.63
-9507.9
1614.67
-8847.29
3046.42
-8283.59
6147.84
-8006.59
8706.21
-7851.86
11518.9
-7785.18
15160
-7771.23
19352.9
-7853.5
23613.2
-8068.89
27517.4
-8514.45
30603.2
-9335.46
33058.1
-9920.16
33749
-7782.15
27306.1
-2074.05
6334.65
940.219
-11296
1392.49
-11907.1
-8341
-7606.09
15066.3
-10754.8
11063.3
-12086.4
2946.3
-11212.3
2172.3
-10085.9
5021.46
-9362.18
7982.5
-8883.92
11040.6
-8604.6
14880.7
-8465.22
19213.6
-8460.32
23608.3
-8690.58
27747.7
-9354.48
31267.1
-10274.6
33978.1
-9957.58
33432
-6081.13
23429.7
-995.706
1249.23
666.183
-12957.9
1423.56
-12664.5
-8991.5
-7227.64
-11003.1
-13740.3
-13917.1
-13072.9
-12261
-11532.2
-10946.4
-10566.4
-10438.5
-10637.1
-11097.7
-11117.6
-9135.04
-4237.65
-92.7468
760.603
1534.33
-173.091
-185.493
8.41695
-1560.51
273.877
-2126.8
505.322
-2042.11
692.095
-1803.67
853.302
-1604.72
962.899
-1457.58
1059.12
-1339.78
1133.25
-1229.92
1183.7
-1120.09
1208.91
-1009.17
1208.08
-898.188
1180.58
-788.579
1125.58
-680.933
1042.12
-575.565
928.224
-470.497
781.747
-364.569
591.836
-245.148
339.629
-102.006
105.335
379.807
-565.302
548.31
-1729.01
559.217
-2137.71
551.558
-2034.46
583.994
-1836.11
656.432
-1677.16
752.14
-1553.29
846.731
-1434.38
927.461
-1310.66
987.953
-1180.58
1025.25
-1046.47
1037.17
-910.113
1021.8
-773.212
977.325
-636.46
902.427
-500.668
795.683
-363.756
660.858
-229.744
487.671
-71.9624
271.575
114.087
376.91
727.935
-1293.24
1096.67
-2097.75
1078.6
-2119.64
999.061
-1954.92
989.741
-1826.79
1031.97
-1719.39
1088
-1609.31
1133.58
-1479.97
1161.48
-1338.55
1169.12
-1188.23
1155.25
-1032.59
1115.81
-870.678
1045.53
-702.931
939.4
-530.335
792.214
-353.484
602.339
-173.883
399.73
-27.1367
228.386
99.3786
68.8392
273.631
445.749
459.547
-1752.79
535.043
-2173.25
370.248
-1954.85
224.769
-1809.44
140.746
-1742.77
81.0096
-1659.66
19.2837
-1547.59
-55.2399
-1405.44
-140.212
-1253.58
-232.804
-1095.64
-332.14
-933.257
-438.57
-764.249
-550.25
-591.253
-660.968
-419.618
-757.815
-256.64
-822.511
-109.189
-838.944
-10.7061
-764.481
24.9141
-508.503
17.6497
-62.7534
-24.6541
-1728.14
-190.447
-2007.45
-373.177
-1772.12
-537.225
-1645.4
-705.841
-1574.15
-884.913
-1480.59
-1070.28
-1362.22
-1257.35
-1218.38
-1444.71
-1066.22
-1632.95
-907.395
-1820.81
-745.401
-2000.73
-584.327
-2156.29
-435.701
-2258.41
-317.494
-2262.75
-252.302
-2112.66
-259.278
-1778.96
-344.415
-1254.11
-499.927
-566.331
-670.135
-629.084
-249.652
-1478.48
-327.048
-1930.06
-391.714
-1707.45
-529.67
-1507.44
-710.614
-1393.21
-906.8
-1284.4
-1093.8
-1175.22
-1262.55
-1049.64
-1409.52
-919.253
-1532.82
-784.089
-1627.29
-650.934
-1683.1
-528.514
-1688.01
-430.796
-1625.65
-379.846
-1481.24
-396.715
-1238.31
-502.204
-894.234
-688.495
-495.702
-898.46
-168.661
-997.176
-797.745
-92.5811
-1385.9
-32.617
-1990.02
36.8265
-1776.9
60.7575
-1531.37
62.4388
-1394.89
54.4457
-1276.41
55.7217
-1176.49
76.9791
-1070.89
125.448
-967.722
205.674
-864.316
318.322
-763.582
458.975
-669.167
614.478
-586.299
761.853
-527.222
868.929
-503.791
896.11
-529.386
805.084
-597.469
585.509
-678.885
283.332
-695
-514.413
20.8188
-1406.72
75.6868
-2044.89
140.099
-1841.31
201.756
-1593.03
269.301
-1462.44
338.1
-1345.21
410.773
-1249.17
490.216
-1150.34
579.514
-1057.02
681.404
-966.206
795.574
-877.751
916.999
-790.592
1034.93
-704.225
1128.24
-620.536
1168.9
-544.448
1123.04
-483.527
969.456
-443.884
704.837
-414.266
371.034
-361.196
-143.378
122.861
-1529.58
174.156
-2096.19
209.929
-1877.08
258.211
-1641.31
324.088
-1528.31
389.046
-1410.17
454.831
-1314.95
516.806
-1212.31
576.123
-1116.34
630.349
-1020.43
678.349
-925.752
718.815
-831.059
751.011
-736.421
772.188
-641.714
774.983
-547.243
743.04
-451.584
655.567
-356.411
492.602
-251.301
256.367
-124.959
112.989
196.322
-1725.9
218.086
-2117.95
234.844
-1893.84
278.76
-1685.22
343.588
-1593.14
403.897
-1470.48
469.02
-1380.07
532.772
-1276.06
599.229
-1182.79
662.213
-1083.42
717.271
-980.809
757.046
-870.834
775.479
-754.854
767.47
-633.704
729.885
-509.658
659.294
-380.992
551.319
-248.436
397.188
-97.1697
199.528
72.7023
312.516
217.914
-1943.82
188.475
-2088.51
201.719
-1907.08
246.939
-1730.44
309.965
-1656.17
368.606
-1529.12
437.434
-1448.9
507.871
-1346.5
586.031
-1260.95
662.201
-1159.59
732.022
-1050.63
784.864
-923.676
811.471
-781.462
802.926
-625.159
756.277
-463.008
669.016
-293.731
534.602
-114.022
352.14
85.2934
177.786
247.056
490.303
137.129
-2080.95
54.9742
-2006.35
52.5909
-1904.7
68.5899
-1746.44
94.6236
-1682.2
121.6
-1556.09
159.21
-1486.51
201.595
-1388.89
252.055
-1311.41
302.17
-1209.7
348.103
-1096.56
377.624
-953.196
377.794
-781.631
341.49
-588.853
278.724
-400.24
204.328
-219.332
142.237
-51.9288
81.3876
146.146
-11.4864
339.932
478.816
-8.28911
-2072.66
-100.827
-1913.82
-148.036
-1857.49
-196.62
-1697.86
-241.432
-1637.39
-285.966
-1511.56
-328.465
-1444.01
-368.696
-1348.65
-406.211
-1273.9
-438.279
-1177.63
-464.914
-1069.93
-490.555
-927.555
-525.132
-747.054
-571.771
-542.213
-621.351
-350.66
-666.177
-174.505
-699.929
-18.1761
-659.173
105.39
-462.941
143.701
15.8754
-69.6868
-2002.97
-137.503
-1846
-201.449
-1793.54
-281.643
-1617.66
-358.127
-1560.9
-445.688
-1424
-539.608
-1350.09
-642.904
-1245.36
-752.993
-1163.81
-861.034
-1069.59
-958.848
-972.111
-1035.64
-850.764
-1086.01
-696.679
-1115.39
-512.838
-1134.55
-331.499
-1117.29
-191.757
-1005.22
-130.252
-758.435
-141.39
-377.745
-236.988
-361.869
-10.6657
-1992.3
-28.4044
-1828.26
-39.9506
-1782
-65.7901
-1591.82
-88.7227
-1537.97
-118.891
-1393.83
-155.395
-1313.59
-198.584
-1202.16
-249.724
-1112.67
-302.115
-1017.2
-347.683
-926.542
-368.683
-829.763
-344.106
-721.254
-263.793
-593.149
-143.705
-451.585
-5.53419
-329.925
133.829
-269.613
222.54
-230.099
186.204
-200.65
-175.665
36.1502
-2028.45
48.6398
-1840.75
76.6622
-1810.02
106.435
-1621.59
133.901
-1565.44
169.4
-1429.32
200.963
-1345.15
237.649
-1238.85
272.03
-1147.05
307.558
-1052.73
343.357
-962.34
385.733
-872.137
444.631
-780.152
531.478
-679.995
641.331
-561.437
726.205
-414.799
712.394
-255.802
593.593
-111.298
361.205
31.7378
185.54
-0.117274
-2028.33
-18.5772
-1822.29
-17.7312
-1810.86
2.23032
-1641.55
20.6311
-1583.84
59.2401
-1467.93
101.39
-1387.3
157.165
-1294.62
221.237
-1211.12
295.561
-1127.05
378.461
-1045.24
468.231
-961.906
559.588
-871.509
640.682
-761.088
689.329
-610.084
664.51
-389.979
502.791
-94.0818
281.999
109.495
146.608
167.131
332.147
-156.572
-1871.76
-325.831
-1653.03
-459.901
-1676.79
-550.746
-1550.71
-631.713
-1502.87
-679.385
-1420.26
-711.398
-1355.28
-721.119
-1284.9
-713.262
-1218.97
-687.052
-1153.26
-643.332
-1088.96
-582.276
-1022.96
-505.093
-948.692
-415.003
-851.178
-318.556
-706.53
-222.36
-486.175
-131.249
-185.192
-71.0571
49.3042
-57.847
153.921
274.3
-217.556
-1654.21
-476.67
-1393.91
-749.523
-1403.94
-980.678
-1319.55
-1202.65
-1280.89
-1392.13
-1230.79
-1558.71
-1188.71
-1697.53
-1146.08
-1811.32
-1105.19
-1899.97
-1064.6
-1964.61
-1024.33
-2004.19
-983.374
-2013.58
-939.3
-1978.68
-886.079
-1871.48
-813.733
-1645.07
-712.582
-1251.69
-578.571
-785.171
-417.219
-379.369
-251.88
-105.069
-679.206
-1098.12
-1527.06
-1871.61
-2177.51
-2433.29
-2647
-2818.08
-2948.26
-3037.86
-3087.19
-3095.57
-3059.87
-2970.94
-2809.68
-2547.26
-2150.83
-1593.05
-869.931
-679.206
1654.21
-1098.12
1393.92
-1527.07
1403.94
-1871.63
1319.56
-2177.53
1280.9
-2433.32
1230.8
-2647.05
1188.72
-2818.14
1146.09
-2948.35
1105.21
-3037.97
1064.62
-3087.33
1024.36
-3095.73
983.406
-3060.06
939.329
-2971.15
886.089
-2809.86
813.711
-2547.39
712.527
-2150.89
578.508
-1593.09
417.193
-869.95
251.863
105.05
-217.588
1871.8
-476.743
1653.07
-749.633
1676.83
-980.83
1550.76
-1202.85
1502.92
-1392.37
1420.32
-1558.99
1355.35
-1697.87
1284.97
-1811.71
1219.05
-1900.43
1153.34
-1965.13
1089.06
-2004.79
1023.06
-2014.23
948.772
-1979.33
851.188
-1872.02
706.404
-1645.35
485.852
-1251.62
184.784
-785.191
-49.2384
-379.462
-153.865
-274.412
-156.612
2028.41
-325.889
1822.35
-459.985
1810.93
-550.856
1641.63
-631.844
1583.91
-679.54
1468.01
-711.571
1387.38
-721.312
1294.71
-713.474
1211.21
-687.283
1127.15
-643.583
1045.36
-582.549
962.029
-505.398
871.621
-415.352
761.142
-318.961
610.013
-222.806
389.698
-131.62
93.5999
-71.4081
-109.449
-58.0671
-167.205
-332.479
-0.0604463
2028.47
-18.5336
1840.82
-17.6631
1810.06
2.31668
1621.65
20.753
1565.47
59.3795
1429.39
101.565
1345.19
157.363
1238.92
221.469
1147.11
295.824
1052.8
378.76
962.42
468.55
872.239
559.897
780.274
640.875
680.165
689.264
561.624
663.971
414.991
501.263
256.308
280.623
111.192
146.084
-32.6655
-186.396
36.2899
1992.18
48.8385
1828.28
76.9597
1781.94
106.874
1591.74
134.475
1537.87
170.15
1393.71
201.91
1313.43
238.836
1201.99
273.501
1112.44
309.355
1016.95
345.512
926.264
388.243
829.508
447.437
721.081
534.38
593.222
643.914
452.09
727.896
331.009
712.755
271.449
593.144
230.803
360.785
199.694
174.389
-10.3441
2002.52
-27.7858
1845.72
-39.0221
1793.18
-64.5229
1617.24
-87.1334
1560.48
-116.947
1423.53
-153.106
1349.59
-195.931
1244.82
-246.707
1163.22
-298.716
1068.96
-343.871
971.42
-364.398
850.035
-339.322
696.005
-258.571
512.472
-138.2
331.72
-0.037882
192.847
139.731
131.68
228.031
142.503
188.903
238.823
363.292
-69.8267
2072.35
-137.574
1913.46
-201.566
1857.17
-281.88
1697.55
-358.471
1637.07
-446.209
1511.27
-540.331
1443.72
-643.89
1348.37
-754.258
1273.59
-862.574
1177.27
-960.591
1069.44
-1037.43
926.874
-1087.63
746.21
-1116.6
541.441
-1135
350.112
-1116.4
174.252
-1003.04
18.3168
-756.014
-104.518
-375.816
-141.375
-12.5243
-8.8005
2081.15
-101.423
2006.09
-148.887
1904.63
-197.787
1746.45
-242.921
1682.21
-287.81
1556.16
-330.696
1486.6
-371.351
1389.03
-409.321
1311.56
-441.855
1209.8
-468.965
1096.55
-495.086
952.994
-530.112
781.236
-577.105
588.433
-626.967
399.974
-672.054
219.338
-705.73
51.9936
-663.778
-146.47
-465.395
-339.757
-477.919
136.801
1944.35
54.4054
2088.48
51.8282
1907.21
67.6134
1730.67
93.4098
1656.41
120.177
1529.39
157.567
1449.21
199.749
1346.85
249.987
1261.32
299.868
1159.92
345.526
1050.89
374.712
923.809
374.512
781.436
337.957
624.988
275.211
462.72
201.237
293.313
139.896
113.335
79.3588
-85.932
-12.9518
-247.446
-490.871
218.016
1726.33
188.401
2118.1
201.593
1894.02
246.799
1685.46
309.814
1593.4
368.47
1470.73
437.34
1380.34
507.845
1276.34
586.088
1183.08
662.333
1083.68
732.203
981.019
785.047
870.965
811.601
754.883
802.972
633.617
756.241
509.451
668.894
380.66
534.256
247.973
351.727
96.5968
177.661
-73.3791
-313.211
196.631
1529.7
218.329
2096.4
235.051
1877.3
278.992
1641.52
343.859
1528.53
404.212
1410.38
469.389
1315.17
533.209
1212.52
599.746
1116.54
662.809
1020.61
717.932
925.896
757.744
831.153
776.169
736.458
768.098
641.688
730.405
547.144
659.675
451.39
551.553
356.095
397.313
250.837
199.581
124.354
-113.63
123.14
1406.56
174.386
2045.15
210.047
1841.64
258.247
1593.32
324.065
1462.71
388.952
1345.49
454.672
1249.44
516.585
1150.61
575.841
1057.28
630
966.455
677.905
877.991
718.218
790.839
750.188
704.487
771.1
620.776
773.668
544.576
741.657
483.4
654.34
443.412
491.725
413.452
255.883
360.196
142.253
21.2717
1385.29
76.1581
1990.26
140.471
1777.32
202.162
1531.63
269.84
1395.03
338.796
1276.53
411.574
1176.67
490.995
1071.19
580.061
968.216
681.475
865.04
794.926
764.54
915.502
670.263
1032.7
587.288
1125.7
527.774
1166.55
503.727
1121.08
528.875
968.14
596.349
704.205
677.388
370.857
693.544
513.11
-92.087
1477.38
-31.5949
1929.77
38.3394
1707.39
62.8619
1507.1
65.3268
1392.57
58.2192
1283.64
60.3352
1174.55
82.3457
1049.18
131.473
919.087
212.283
784.228
325.511
651.31
466.776
528.996
622.805
431.258
770.291
380.287
876.672
397.346
902.243
503.304
809.174
689.419
587.795
898.766
284.486
996.854
797.595
-246.933
1724.31
-324.543
2007.38
-387.427
1770.27
-523.087
1642.76
-702.054
1571.53
-896.454
1478.04
-1081.71
1359.8
-1248.61
1216.08
-1393.53
1064.01
-1514.54
905.235
-1606.55
743.327
-1660.13
582.574
-1663.63
434.754
-1601.12
317.779
-1457.52
253.75
-1215.86
261.638
-874.552
348.112
-481.653
505.866
-162.803
678.004
634.793
-15.9188
1740.23
-179.485
2170.95
-363.612
1954.4
-527.828
1806.98
-695.242
1738.95
-873.194
1655.99
-1057.87
1544.47
-1244.67
1402.88
-1432.01
1251.35
-1620.59
1093.82
-1809.19
931.931
-1990.05
763.427
-2146.6
591.305
-2249.72
420.897
-2254.71
258.746
-2104.5
111.419
-1768.54
12.1595
-1242.84
-19.8371
-559.591
-5.24522
75.2015
479.178
1261.05
572.422
2077.7
410.39
2116.43
260.841
1956.53
173.368
1826.42
111.638
1717.72
48.3898
1607.72
-28.0442
1479.31
-115.592
1338.9
-211.102
1189.33
-313.374
1034.2
-423.001
873.054
-537.829
706.133
-651.611
534.678
-751.936
359.071
-821.023
180.505
-841.816
32.9527
-770.198
-91.4556
-514.971
-260.473
-439.769
755.593
505.456
1148.86
1684.44
1135.19
2130.1
1048.93
2042.78
1031.36
1843.99
1067.33
1681.76
1118.9
1556.15
1161.24
1436.97
1186.52
1313.62
1191.74
1184.11
1175.35
1050.59
1133.51
914.893
1060.91
778.73
952.723
642.869
803.674
508.12
611.658
372.521
404.478
240.133
227.58
85.4417
67.9164
-100.81
-371.853
354.881
150.575
529.367
1509.95
542.845
2116.62
537.683
2047.94
571.826
1809.85
646.765
1606.82
746.101
1456.81
844.573
1338.5
928.846
1229.34
992.131
1120.82
1031.34
1011.38
1044.34
901.894
1029.31
793.764
984.577
687.597
909.059
583.638
801.569
480.011
666.405
375.297
494.76
257.086
281.425
112.525
-90.4274
-247.465
-59.044
229.016
484.02
688.7
860.205
972.683
1070.49
1145.66
1197.29
1224.57
1227.08
1204.05
1154.03
1075.19
964.436
818.563
625.376
362.752
)
;

boundaryField
{
    outletWall
    {
        type            calculated;
        value           nonuniform List<scalar> 
60
(
19291.2
2700.49
-3994.92
-14661.5
-21293.5
-25816.6
-27998.1
-25221
-18684.2
-10839.4
-2212.36
-6328.89
-14681.8
-18759.1
-18406.3
-17214.8
-15068.4
-13411
-11314
-8450.88
5551.78
5916.31
5872.9
5549.28
5182.65
4867.89
4511.74
3948.68
3338.08
2827.1
2456.12
2199.69
2019.6
1893.27
1811.06
1764.34
1743.45
1738.38
1749.59
1782.62
2626.87
-9376.99
-13438.2
-13811.2
-2895.67
18532.3
31449.5
33998
31727.7
27946.2
23480.5
18833.5
14294.9
10311.8
7170.62
4177.18
2349.13
5683.5
14838.8
16742.2
)
;
    }
    fineWalls
    {
        type            calculated;
        value           uniform 0;
    }
    fineFrontAndBack
    {
        type            calculated;
        value           nonuniform List<scalar> 
960
(
-2.13175e-12
-1.32584e-11
-2.1756e-12
-2.38858e-12
-1.35124e-11
-1.98565e-12
-2.12334e-12
-1.02285e-12
-9.96201e-12
-2.04166e-12
-2.20518e-12
-1.12447e-11
-1.39149e-12
-1.13332e-12
-8.24491e-12
-1.14088e-12
-6.03144e-13
-8.68047e-12
-1.28979e-12
-1.19679e-12
-1.67435e-13
-1.61026e-13
-1.76332e-13
-2.22955e-13
-2.58362e-13
-3.63037e-13
-8.76087e-12
-4.79396e-13
-5.56884e-13
-6.46973e-13
-7.38855e-13
-8.28305e-13
-9.07811e-13
-9.81216e-13
-1.03944e-12
-1.07161e-12
-1.05246e-12
-1.04721e-12
-9.38914e-13
-1.16055e-12
-1.34089e-11
1.82633e-13
1.00304e-12
7.52115e-13
4.61647e-11
4.06133e-11
3.9299e-11
4.5518e-11
2.84652e-10
4.79403e-11
5.49151e-11
8.31471e-11
-1.81909e-12
2.72207e-13
-4.552e-13
2.67549e-13
8.63072e-13
1.50843e-12
2.57637e-12
3.39027e-11
1.9374e-12
1.67314e-12
1.73393e-12
1.67683e-12
1.64502e-12
1.5869e-12
1.51724e-12
1.44539e-12
1.36789e-12
1.27056e-12
1.16031e-12
1.05658e-12
9.75005e-13
1.88887e-11
8.08509e-13
7.14849e-13
6.99804e-13
6.82965e-13
6.82831e-13
6.48395e-13
3.17055e-12
3.09531e-12
1.89506e-11
4.53943e-12
4.26534e-12
2.06339e-11
4.40191e-12
4.45824e-12
2.55941e-11
4.84956e-12
4.29595e-12
3.18612e-11
7.77458e-12
8.00004e-12
7.91696e-12
3.89429e-11
6.82643e-12
6.78903e-12
3.0056e-11
8.50398e-12
-3.53955e-11
-3.40667e-11
-2.96023e-11
-2.48362e-11
-1.65038e-11
-7.36164e-12
-1.33648e-12
-1.10463e-12
1.37203e-12
-7.10197e-13
-1.1785e-12
5.06378e-12
7.66497e-12
6.78518e-12
4.78759e-12
3.88944e-12
7.26828e-12
1.41018e-11
-1.81025e-12
-3.53869e-11
-3.37754e-11
-2.93201e-11
-2.4367e-11
-1.59909e-11
-7.02795e-12
-1.28185e-12
-1.10315e-12
1.31331e-12
-7.07403e-13
-1.05657e-12
5.14621e-12
7.66932e-12
6.76713e-12
4.78712e-12
3.87227e-12
6.91307e-12
1.34408e-11
-4.8303e-13
-3.53527e-11
-3.34125e-11
-2.89511e-11
-2.37653e-11
-1.53429e-11
-6.61893e-12
-1.22656e-12
-1.11502e-12
1.22271e-12
-8.58285e-13
-8.67425e-13
5.26674e-12
7.67435e-12
6.73402e-12
4.77903e-12
3.85316e-12
6.4446e-12
1.23578e-11
1.39312e-12
-3.5288e-11
-3.30246e-11
-2.85387e-11
-2.31131e-11
-1.46528e-11
-6.18871e-12
-1.18037e-12
-1.15167e-12
1.18671e-12
-1.08928e-12
-6.28342e-13
5.41401e-12
7.67739e-12
6.68198e-12
4.75317e-12
3.83973e-12
5.94747e-12
1.07151e-11
2.52485e-12
-3.51899e-11
-3.26121e-11
-2.80883e-11
-2.24461e-11
-1.39794e-11
-5.74087e-12
-1.059e-12
-1.13388e-12
1.35362e-12
-9.09929e-13
-3.99282e-13
5.5759e-12
7.67656e-12
6.61238e-12
4.71126e-12
3.83769e-12
5.4942e-12
8.12367e-12
1.23415e-12
-3.50525e-11
-3.2159e-11
-2.75869e-11
-2.17807e-11
-1.34162e-11
-5.41824e-12
-8.13712e-13
-9.67892e-13
1.54059e-12
-9.7587e-14
-2.17725e-13
5.74249e-12
7.66588e-12
6.48965e-12
4.58886e-12
3.85793e-12
5.233e-12
7.99406e-12
6.65817e-12
-3.48664e-11
-3.16433e-11
-2.70052e-11
-2.10767e-11
-1.29311e-11
-5.27892e-12
-9.63447e-13
-1.42134e-12
4.96493e-13
7.66884e-13
-2.78856e-15
5.92259e-12
7.64519e-12
6.43458e-12
4.66708e-12
3.81128e-12
8.56735e-12
1.96983e-11
2.58599e-11
-3.46212e-11
-3.10125e-11
-2.62202e-11
-2.01766e-11
-1.25387e-11
-5.81178e-12
-1.57255e-12
-2.36745e-12
-1.19552e-12
1.33566e-12
3.09352e-13
6.03082e-12
7.61012e-12
5.90021e-12
3.40833e-12
5.14243e-12
2.32967e-11
3.52848e-11
4.75377e-11
-3.42802e-11
-3.01473e-11
-2.5076e-11
-1.90257e-11
-1.21878e-11
-6.482e-12
-6.4043e-12
-6.70324e-12
-2.50614e-12
2.65104e-12
8.14908e-13
6.96568e-12
7.42528e-12
6.70567e-12
7.98637e-12
6.98378e-12
1.80517e-11
1.56209e-11
1.03597e-11
-3.37606e-11
-2.89345e-11
-2.3589e-11
-1.78595e-11
-1.22919e-11
-8.25971e-12
-2.68582e-12
-8.27626e-13
4.78365e-12
5.39453e-12
8.87339e-13
4.0463e-12
7.71409e-12
3.8969e-12
-9.83205e-12
9.3942e-12
1.78238e-11
3.03436e-11
7.00961e-11
-3.30433e-11
-2.75708e-11
-2.20942e-11
-1.67889e-11
-1.26066e-11
-1.08806e-11
-3.2225e-12
1.12962e-11
1.82058e-11
6.74555e-12
1.17985e-12
4.15213e-12
7.53754e-12
-3.32363e-13
-1.61565e-11
1.33995e-11
2.20159e-11
3.49587e-11
1.22274e-10
-3.23364e-11
-2.63882e-11
-2.05659e-11
-1.51295e-11
-1.06164e-11
-7.74666e-12
2.08164e-13
2.08914e-11
2.40793e-11
4.5816e-12
2.14032e-12
5.77839e-12
6.22835e-12
-4.16251e-12
-8.85887e-12
2.49956e-11
2.66639e-11
1.40782e-11
2.56377e-11
-3.19893e-11
-2.45758e-11
-1.60829e-11
-8.78916e-12
-9.63933e-13
3.8935e-12
9.55786e-12
2.48878e-11
1.81775e-11
2.37114e-12
3.79985e-12
6.85564e-12
3.81958e-12
-5.22585e-12
5.22227e-12
3.49069e-11
1.41495e-11
-1.9467e-11
-2.32009e-11
-3.15794e-11
-1.87521e-11
-3.26657e-12
5.88363e-12
1.29946e-11
1.39915e-11
1.52538e-11
2.06894e-11
9.08055e-12
2.8563e-12
5.93256e-12
7.01791e-12
1.22129e-12
-2.10293e-12
1.98151e-11
3.52205e-11
-4.97958e-12
-4.12723e-11
-3.1019e-11
-2.95925e-11
-5.25784e-12
2.03888e-11
2.00412e-11
1.94041e-11
1.65283e-11
1.49493e-11
1.28029e-11
5.89455e-12
5.69397e-12
8.04592e-12
6.12969e-12
-4.44821e-13
3.98813e-12
2.9125e-11
2.70564e-11
-2.24757e-11
-3.96395e-11
-4.0336e-11
-2.54698e-11
8.88755e-12
3.07343e-11
2.35058e-11
1.9932e-11
1.71444e-11
1.43207e-11
1.10348e-11
8.56086e-12
9.35831e-12
9.20905e-12
4.34479e-12
-4.78293e-13
1.08243e-11
3.21094e-11
1.39205e-11
-4.46775e-11
-3.98435e-11
-2.98504e-11
-2.16913e-11
1.48516e-11
2.96555e-11
2.31988e-11
2.05295e-11
1.89697e-11
1.65606e-11
1.40716e-11
1.26211e-11
1.16945e-11
8.47275e-12
2.29168e-12
1.47381e-12
1.69484e-11
3.02075e-11
8.99978e-13
-4.93e-11
-4.00832e-11
-2.77707e-11
-1.99068e-11
1.52204e-11
2.90302e-11
2.33249e-11
2.04395e-11
1.93917e-11
1.78104e-11
1.60331e-11
1.41711e-11
1.12418e-11
6.14463e-12
1.17508e-12
5.14489e-12
2.09756e-11
2.40914e-11
-1.14584e-11
-4.34597e-11
-3.65066e-11
-2.52946e-11
-1.98041e-11
1.42003e-11
3.07587e-11
2.58402e-11
2.10539e-11
1.85e-11
1.60772e-11
1.37899e-11
1.10938e-11
7.10021e-12
2.31476e-12
1.05323e-12
9.84991e-12
2.31507e-11
1.58199e-11
-2.46664e-11
-4.25429e-11
-3.4776e-11
-2.35413e-11
-2.20351e-11
5.93085e-12
2.45519e-11
2.5599e-11
2.32442e-11
2.06293e-11
1.70236e-11
1.32702e-11
9.58763e-12
6.1025e-12
4.33527e-12
7.30813e-12
1.52231e-11
1.80453e-11
-2.84571e-13
-3.87078e-11
-4.26219e-11
-3.42948e-11
-2.26733e-11
2.13175e-12
1.32584e-11
2.1756e-12
2.38858e-12
1.35124e-11
1.98565e-12
2.12334e-12
1.02285e-12
9.96201e-12
2.04166e-12
2.20518e-12
1.12447e-11
1.39149e-12
1.13332e-12
8.24491e-12
1.14088e-12
6.03144e-13
8.68047e-12
1.28979e-12
1.19679e-12
1.67435e-13
1.61026e-13
1.76332e-13
2.22955e-13
2.58362e-13
3.63037e-13
8.76087e-12
4.79396e-13
5.56884e-13
6.46973e-13
7.38855e-13
8.28305e-13
9.07811e-13
9.81216e-13
1.03944e-12
1.07161e-12
1.05246e-12
1.04721e-12
9.38914e-13
1.16055e-12
1.34089e-11
-1.82633e-13
-1.00304e-12
-7.52115e-13
-4.61647e-11
-4.06133e-11
-3.9299e-11
-4.5518e-11
-2.84652e-10
-4.79403e-11
-5.49151e-11
-8.31471e-11
1.81909e-12
-2.72207e-13
4.552e-13
-2.67549e-13
-8.63072e-13
-1.50843e-12
-2.57637e-12
-3.39027e-11
-1.9374e-12
-1.67314e-12
-1.73393e-12
-1.67683e-12
-1.64502e-12
-1.5869e-12
-1.51724e-12
-1.44539e-12
-1.36789e-12
-1.27056e-12
-1.16031e-12
-1.05658e-12
-9.75005e-13
-1.88887e-11
-8.08509e-13
-7.14849e-13
-6.99804e-13
-6.82965e-13
-6.82831e-13
-6.48395e-13
-3.17055e-12
-3.09531e-12
-1.89506e-11
-4.53943e-12
-4.26534e-12
-2.06339e-11
-4.40191e-12
-4.45824e-12
-2.55941e-11
-4.84956e-12
-4.29595e-12
-3.18612e-11
-7.77458e-12
-8.00004e-12
-7.91696e-12
-3.89429e-11
-6.82643e-12
-6.78903e-12
-3.0056e-11
-8.50398e-12
3.53955e-11
3.40667e-11
2.96023e-11
2.48362e-11
1.65038e-11
7.36164e-12
1.33648e-12
1.10463e-12
-1.37203e-12
7.10197e-13
1.1785e-12
-5.06378e-12
-7.66497e-12
-6.78518e-12
-4.78759e-12
-3.88944e-12
-7.26828e-12
-1.41018e-11
1.81025e-12
3.53869e-11
3.37754e-11
2.93201e-11
2.4367e-11
1.59909e-11
7.02795e-12
1.28185e-12
1.10315e-12
-1.31331e-12
7.07403e-13
1.05657e-12
-5.14621e-12
-7.66932e-12
-6.76713e-12
-4.78712e-12
-3.87227e-12
-6.91307e-12
-1.34408e-11
4.8303e-13
3.53527e-11
3.34125e-11
2.89511e-11
2.37653e-11
1.53429e-11
6.61893e-12
1.22656e-12
1.11502e-12
-1.22271e-12
8.58285e-13
8.67425e-13
-5.26674e-12
-7.67435e-12
-6.73402e-12
-4.77903e-12
-3.85316e-12
-6.4446e-12
-1.23578e-11
-1.39312e-12
3.5288e-11
3.30246e-11
2.85387e-11
2.31131e-11
1.46528e-11
6.18871e-12
1.18037e-12
1.15167e-12
-1.18671e-12
1.08928e-12
6.28342e-13
-5.41401e-12
-7.67739e-12
-6.68198e-12
-4.75317e-12
-3.83973e-12
-5.94747e-12
-1.07151e-11
-2.52485e-12
3.51899e-11
3.26121e-11
2.80883e-11
2.24461e-11
1.39794e-11
5.74087e-12
1.059e-12
1.13388e-12
-1.35362e-12
9.09929e-13
3.99282e-13
-5.5759e-12
-7.67656e-12
-6.61238e-12
-4.71126e-12
-3.83769e-12
-5.4942e-12
-8.12367e-12
-1.23415e-12
3.50525e-11
3.2159e-11
2.75869e-11
2.17807e-11
1.34162e-11
5.41824e-12
8.13712e-13
9.67892e-13
-1.54059e-12
9.7587e-14
2.17725e-13
-5.74249e-12
-7.66588e-12
-6.48965e-12
-4.58886e-12
-3.85793e-12
-5.233e-12
-7.99406e-12
-6.65817e-12
3.48664e-11
3.16433e-11
2.70052e-11
2.10767e-11
1.29311e-11
5.27892e-12