/*--------------------------------*- C++ -*----------------------------------*\
| =========                 |                                                 |
| \\      /  F ield         | OpenFOAM: The Open Source CFD Toolbox           |
|  \\    /   O peration     | Version:  4.1                                   |
|   \\  /    A nd           | Web:      www.OpenFOAM.org                      |
|    \\/     M anipulation  |                                                 |
\*---------------------------------------------------------------------------*/
FoamFile
{
    version     2.0;
    format      ascii;
    class       volVectorField;
    location    "24";
    object      U;
}
// * * * * * * * * * * * * * * * * * * * * * * * * * * * * * * * * * * * * * //

dimensions      [0 1 -1 0 0 0 0];

internalField   nonuniform List<vector> 
1280
(
(-1.54056e-15 -0.894459 -1.70704)
(-2.2534e-15 0.16182 -1.64286)
(-1.57225e-15 -0.619814 -1.42488)
(-1.72616e-15 -0.17628 -1.51835)
(-2.29656e-15 0.51615 -1.87618)
(-1.43498e-15 0.18093 -1.26614)
(-1.53448e-15 0.490204 -1.27253)
(-6.72784e-16 0.577024 -1.16766)
(-1.95719e-15 1.15951 -1.85729)
(-1.47546e-15 1.03395 -1.45326)
(-1.62004e-15 1.25688 -1.31467)
(-1.72186e-15 1.90762 -2.15282)
(-9.89817e-16 1.71702 -1.7098)
(-8.19023e-16 2.03643 -1.5524)
(-1.38215e-15 2.65164 -2.47037)
(-8.24486e-16 2.48436 -2.01546)
(-4.35876e-16 2.80839 -1.77953)
(-1.47533e-15 3.94507 -3.57886)
(-9.32097e-16 3.59723 -2.81389)
(-8.64888e-16 4.34278 -2.8154)
(-6.86914e-16 4.09373 -2.83019)
(-6.60621e-16 4.27291 3.10151)
(-7.23414e-16 3.99533 8.55567)
(-9.14689e-16 4.089 11.0747)
(-1.05995e-15 4.30921 11.8267)
(-1.48938e-15 4.74804 11.9909)
(-1.84682e-15 3.53451 9.36392)
(-1.96675e-15 7.93631 14.4038)
(-2.28465e-15 7.89522 14.2804)
(-2.65425e-15 7.93228 13.9529)
(-3.0312e-15 7.943 13.5475)
(-3.39817e-15 7.92043 13.113)
(-3.72435e-15 7.89483 12.6829)
(-4.0255e-15 7.86096 12.2872)
(-4.26438e-15 7.82364 11.9547)
(-4.39634e-15 7.76402 11.6871)
(-4.31777e-15 7.71471 11.4889)
(-4.29625e-15 7.59675 11.2914)
(-3.85196e-15 7.56983 11.2301)
(-4.76121e-15 7.27707 11.0545)
(-2.33402e-15 8.31201 13.042)
(1.46693e-16 4.72722 9.38117)
(8.05654e-16 3.65645 9.30618)
(6.75998e-16 2.65264 9.68853)
(8.03562e-15 0.620329 6.88508)
(3.26211e-14 -0.370822 -4.23088)
(3.15655e-14 -0.0436264 -3.41655)
(3.65607e-14 0.244966 -3.40013)
(6.07667e-14 0.655269 -3.91847)
(3.85062e-14 0.0544575 -3.18201)
(4.41085e-14 -0.148165 -3.35933)
(1.4473e-14 1.05536 -1.16056)
(-1.46111e-15 0.255625 5.10649)
(2.18641e-16 -0.310316 4.46678)
(-3.65622e-16 -1.03745 4.97713)
(4.65708e-17 -1.90739 9.01205)
(7.4754e-16 -3.66218 9.50053)
(1.21159e-15 -4.73878 9.24977)
(2.06937e-15 -5.71733 9.13016)
(5.84779e-15 -9.54202 12.3495)
(7.9483e-15 -8.09948 10.2532)
(6.86416e-15 -8.36312 10.3452)
(7.11357e-15 -8.36872 10.3282)
(6.87929e-15 -8.46521 10.4168)
(6.74881e-15 -8.48649 10.5435)
(6.51037e-15 -8.52061 10.7895)
(6.22459e-15 -8.53296 11.1656)
(5.9298e-15 -8.54981 11.6616)
(5.61187e-15 -8.56542 12.2322)
(5.21257e-15 -8.58711 12.8158)
(4.76025e-15 -8.57929 13.3386)
(4.3347e-15 -8.52826 13.7161)
(4.00002e-15 -8.54565 13.8103)
(3.98181e-15 -4.08041 8.08846)
(3.31696e-15 -5.25629 10.7667)
(2.93271e-15 -4.86494 10.0371)
(2.87099e-15 -4.68298 8.84095)
(2.80191e-15 -4.62472 5.87488)
(2.80136e-15 -4.79445 0.195539)
(2.66008e-15 -4.64408 -5.24815)
(2.29127e-15 -4.51133 -5.45392)
(2.2369e-15 -3.62395 -5.32739)
(3.22084e-15 -2.956 -6.73908)
(3.28053e-15 -2.19233 -4.25765)
(3.08245e-15 -1.22287 -4.78322)
(4.28717e-15 -0.318506 -6.28492)
(3.18115e-15 0.201847 -4.41624)
(3.22185e-15 1.08427 -4.11069)
(5.1044e-15 1.93401 -4.73707)
(3.41035e-15 2.10704 -3.16862)
(3.01027e-15 2.69667 -2.95202)
(5.90156e-15 3.74597 -3.72733)
(5.67929e-15 3.42333 -2.63607)
(5.78142e-15 4.13054 -2.62153)
(5.72138e-15 4.23805 -2.49294)
(6.61872e-15 5.51116 -3.33732)
(4.93328e-15 4.84173 -2.43996)
(4.90041e-15 5.56619 -2.26768)
(5.14598e-15 5.67145 -2.94864)
(6.1456e-15 6.32275 -3.19202)
(-3.93283e-15 -2.81691 1.48795)
(-3.78519e-15 -3.77251 1.67481)
(-3.28914e-15 -4.46534 1.67081)
(-2.75958e-15 -5.0116 1.69239)
(-1.83375e-15 -5.71366 1.57805)
(-8.1796e-16 -6.09671 1.28435)
(-1.48498e-16 -6.18175 0.830419)
(-1.22737e-16 -4.83504 -0.261466)
(1.52448e-16 -2.11873 -0.414145)
(-7.89107e-17 -0.769238 0.0306811)
(-1.30944e-16 -3.63833 0.2847)
(5.62642e-16 -6.24673 0.604358)
(8.51664e-16 -8.41264 0.606047)
(7.53909e-16 -9.33145 0.405227)
(5.31954e-16 -8.60708 -0.0888221)
(4.3216e-16 -7.10053 -0.655571)
(8.07586e-16 -4.89272 -1.59271)
(1.56686e-15 -1.29973 -2.14123)
(-2.01138e-16 0.93213 -3.16621)
(-3.93188e-15 -2.88737 1.46978)
(-3.75282e-15 -3.83147 1.67748)
(-3.25779e-15 -4.48273 1.66521)
(-2.70745e-15 -5.00186 1.68112)
(-1.77676e-15 -5.62612 1.56533)
(-7.80883e-16 -5.91614 1.27609)
(-1.42428e-16 -5.80635 0.811114)
(-1.22573e-16 -4.54251 -0.236568)
(1.45923e-16 -2.17919 -0.386922)
(-7.86003e-17 -0.966061 0.0630136)
(-1.17397e-16 -3.7788 0.350755)
(5.71801e-16 -6.31915 0.696454)
(8.52147e-16 -8.33434 0.725146)
(7.51904e-16 -9.09684 0.53419)
(5.31902e-16 -8.23777 0.0327755)
(4.30252e-16 -6.56733 -0.620852)
(7.68119e-16 -4.31855 -1.75319)
(1.49342e-15 -0.860933 -2.89849)
(-5.367e-17 1.23681 -2.84355)
(-3.92807e-15 -2.93316 1.46216)
(-3.7125e-15 -3.86089 1.6869)
(-3.21679e-15 -4.47729 1.65967)
(-2.64059e-15 -4.9709 1.66792)
(-1.70477e-15 -5.534 1.54893)
(-7.35437e-16 -5.74425 1.26591)
(-1.36285e-16 -5.4769 0.777365)
(-1.23891e-16 -4.28726 -0.223339)
(1.35857e-16 -2.22419 -0.361537)
(-9.5365e-17 -1.14209 0.151356)
(-9.63805e-17 -3.91876 0.452005)
(5.85193e-16 -6.41273 0.837801)
(8.52706e-16 -8.31989 0.908724)
(7.48225e-16 -8.97844 0.734805)
(5.31003e-16 -8.03331 0.238011)
(4.28129e-16 -6.21987 -0.504448)
(7.16066e-16 -3.80171 -1.90797)
(1.37309e-15 -0.731099 -3.75764)
(1.54791e-16 1.07851 -3.74117)
(-3.92089e-15 -2.98645 1.4691)
(-3.6694e-15 -3.89027 1.70411)
(-3.17096e-15 -4.47177 1.65264)
(-2.56812e-15 -4.94532 1.64637)
(-1.62809e-15 -5.45841 1.51479)
(-6.87635e-16 -5.5957 1.23182)
(-1.31152e-16 -5.20366 0.723629)
(-1.27964e-16 -4.0932 -0.189034)
(1.31856e-16 -2.29337 -0.248675)
(-1.21031e-16 -1.31603 0.377322)
(-6.98158e-17 -4.04511 0.584951)
(6.01556e-16 -6.51127 1.00664)
(8.53043e-16 -8.3135 1.1362)
(7.42442e-16 -8.86448 0.991401)
(5.2813e-16 -7.81024 0.526687)
(4.26637e-16 -5.79132 -0.273368)
(6.6083e-16 -3.03322 -1.99808)
(1.19056e-15 -0.244976 -4.53822)
(2.80539e-16 1.00092 -5.0933)
(-3.90999e-15 -3.04858 1.49017)
(-3.62357e-15 -3.91881 1.73423)
(-3.12092e-15 -4.46022 1.64753)
(-2.49401e-15 -4.9139 1.6143)
(-1.55326e-15 -5.37591 1.45274)
(-6.37874e-16 -5.43454 1.16434)
(-1.17667e-16 -4.93029 0.655834)
(-1.25987e-16 -3.93341 -0.102412)
(1.50402e-16 -2.40445 -0.0261122)
(-1.01103e-16 -1.50723 0.669791)
(-4.43646e-17 -4.15533 0.734417)
(6.19544e-16 -6.63299 1.18998)
(8.52951e-16 -8.31914 1.40887)
(7.34709e-16 -8.74564 1.30775)
(5.23473e-16 -7.55688 0.908598)
(4.2641e-16 -5.23864 0.0852152)
(6.10466e-16 -1.99436 -2.04914)
(9.0263e-16 0.436024 -5.4415)
(1.37128e-16 0.716667 -6.70672)
(-3.89472e-15 -3.11354 1.53287)
(-3.57322e-15 -3.93766 1.78521)
(-3.06521e-15 -4.43235 1.65088)
(-2.42008e-15 -4.865 1.57067)
(-1.49069e-15 -5.28043 1.34569)
(-6.02026e-16 -5.27285 1.03351)
(-9.04124e-17 -4.69413 0.55633)
(-1.07544e-16 -3.83002 0.0211287)
(1.71177e-16 -2.56111 0.113702)
(-1.0843e-17 -1.66041 0.756932)
(-2.41917e-17 -4.24789 0.862811)
(6.38055e-16 -6.78525 1.37547)
(8.51764e-16 -8.35886 1.71995)
(7.21072e-16 -8.65796 1.68073)
(5.09873e-16 -7.32874 1.39196)
(4.28659e-16 -4.64724 0.565533)
(5.81445e-16 -0.618688 -2.10063)
(8.88229e-16 1.67927 -6.03915)
(7.39797e-16 1.41472 -6.97238)
(-3.87405e-15 -3.18248 1.60548)
(-3.51593e-15 -3.94517 1.86576)
(-3.00058e-15 -4.38224 1.67191)
(-2.34186e-15 -4.78811 1.52414)
(-1.43678e-15 -5.16124 1.19763)
(-5.86547e-16 -5.11488 0.817907)
(-1.0705e-16 -4.52224 0.356642)
(-1.57927e-16 -3.76036 0.0489123)
(5.51658e-17 -2.68841 -0.0832568)
(8.52093e-17 -1.81012 0.313109)
(-3.0984e-19 -4.39916 0.918771)
(6.58066e-16 -6.98252 1.57138)
(8.49465e-16 -8.44207 2.0629)
(7.14954e-16 -8.6155 2.10945)
(5.18565e-16 -7.15492 1.99623)
(4.23476e-16 -3.89714 1.18774)
(9.51928e-16 1.06277 -3.53067)
(2.1887e-15 2.79946 -2.4109)
(2.87332e-15 1.32744 -0.678086)
(-3.8468e-15 -3.25652 1.71533)
(-3.44583e-15 -3.94016 1.98669)
(-2.91335e-15 -4.30501 1.72426)
(-2.24185e-15 -4.67298 1.48842)
(-1.39319e-15 -4.99807 1.02803)
(-6.45753e-16 -4.93638 0.53161)
(-1.74728e-16 -4.38644 -0.0184341)
(-2.6305e-16 -3.66144 -0.243047)
(-1.32836e-16 -2.66135 -0.73862)
(1.48406e-16 -2.06162 -0.675566)
(3.43724e-17 -4.74344 0.915151)
(6.70091e-16 -7.25394 1.80876)
(8.45569e-16 -8.57376 2.43667)
(6.55579e-16 -8.63254 2.59261)
(3.78703e-16 -7.00728 2.67924)
(5.71382e-16 -2.91343 1.71852)
(2.58853e-15 1.25617 1.86287)
(3.92053e-15 -0.329328 7.40863)
(5.28196e-15 -5.03059 10.2382)
(-3.80891e-15 -3.33674 1.87028)
(-3.3497e-15 -3.92068 2.17008)
(-2.78623e-15 -4.19191 1.84178)
(-2.11397e-15 -4.5073 1.49108)
(-1.3542e-15 -4.77566 0.851858)
(-7.20222e-16 -4.6962 0.17577)
(-7.11589e-16 -4.21097 -0.59753)
(-7.44805e-16 -3.48237 -1.00835)
(-2.7846e-16 -2.50647 -1.85382)
(2.9456e-16 -2.49786 -1.66909)
(9.05453e-17 -5.37121 1.03001)
(7.73964e-16 -7.60597 2.11668)
(8.25032e-16 -8.75339 2.84631)
(7.45074e-16 -8.70463 3.11228)
(8.87374e-16 -6.94576 3.2968)
(7.75975e-16 -3.22008 3.08651)
(2.00574e-15 -0.659583 8.17794)
(1.73566e-15 -0.52497 12.4481)
(1.15107e-15 -1.72311 12.0205)
(-3.75118e-15 -3.42886 2.08909)
(-3.21494e-15 -3.89624 2.45649)
(-2.621e-15 -4.04389 2.04545)
(-1.98439e-15 -4.27968 1.503)
(-1.36576e-15 -4.47511 0.637255)
(-9.17745e-16 -4.35779 -0.2238)
(-1.57498e-16 -3.91078 -1.26464)
(-9.19584e-17 -3.17345 -2.07271)
(5.31517e-16 -2.38943 -3.12887)
(5.99393e-16 -3.21696 -1.98321)
(9.85932e-17 -6.2397 1.44566)
(4.09198e-16 -7.99191 2.50508)
(8.57121e-16 -8.96792 3.29406)
(4.32989e-16 -8.80392 3.63252)
(-1.53872e-15 -7.05788 3.81287)
(1.0438e-15 -4.48652 4.27315)
(1.98042e-15 -2.72324 8.55426)
(3.37151e-15 -1.71356 8.61522)
(7.78846e-15 -1.41214 4.47494)
(-3.67147e-15 -3.54413 2.40307)
(-3.06342e-15 -3.86856 2.86939)
(-2.45491e-15 -3.82309 2.27442)
(-1.86543e-15 -3.9447 1.40165)
(-1.40073e-15 -4.0737 0.291743)
(-1.20896e-15 -3.93364 -0.748763)
(-4.74432e-16 -3.46703 -2.02266)
(1.25513e-15 -2.75428 -3.19125)
(2.02286e-15 -2.53445 -3.89076)
(7.49505e-16 -4.32796 -1.1149)
(1.31095e-16 -7.14172 2.06406)
(4.61348e-16 -8.35961 2.97287)
(8.37505e-16 -9.20144 3.77719)
(-3.69292e-17 -8.91724 4.14662)
(-1.79517e-15 -7.24332 4.28139)
(1.48884e-15 -5.20433 4.92817)
(2.44621e-15 -2.45203 7.22206)
(3.88429e-15 1.00616 5.78215)
(1.3586e-14 1.96538 4.75944)
(-3.59293e-15 -3.68321 2.8323)
(-2.93202e-15 -3.80093 3.34178)
(-2.2851e-15 -3.46312 2.34474)
(-1.68106e-15 -3.49339 1.04289)
(-1.1796e-15 -3.6191 -0.250807)
(-8.6074e-16 -3.43474 -1.62951)
(2.31293e-17 -2.93683 -3.03834)
(2.32126e-15 -2.44964 -4.05196)
(2.67548e-15 -3.1612 -3.33833)
(5.09067e-16 -5.65386 0.614796)
(2.37813e-16 -7.83802 2.69988)
(6.42044e-16 -8.69459 3.50263)
(6.92039e-16 -9.4336 4.27875)
(-4.62501e-16 -9.01538 4.64616)
(-9.84318e-16 -7.39221 4.88843)
(2.77729e-15 -5.75088 6.2561)
(2.96265e-15 -3.58618 9.38447)
(1.56425e-15 -0.714475 11.747)
(2.84864e-15 2.013 11.2573)
(-3.55437e-15 -3.82116 3.3431)
(-2.73064e-15 -3.62178 3.68011)
(-1.78699e-15 -2.91678 1.95116)
(-9.76573e-16 -2.93337 0.18651)
(-1.07104e-16 -3.00758 -1.27124)
(4.32611e-16 -2.81373 -2.74668)
(1.06198e-15 -2.48633 -3.82039)
(2.76532e-15 -2.63477 -3.72055)
(2.01972e-15 -4.36417 -1.0488)
(2.6346e-16 -6.77579 2.29025)
(4.22205e-16 -8.26786 3.30042)
(7.61738e-16 -9.00853 4.06094)
(4.24398e-16 -9.65705 4.77306)
(-5.8065e-16 -9.17273 5.15436)
(5.80252e-16 -7.8882 5.89307)
(3.87854e-15 -6.87821 8.50614)
(1.57217e-15 -4.15913 11.6163)
(-2.16301e-15 1.28992 11.6199)
(-2.57788e-15 5.67611 11.1839)
(-3.50883e-15 -3.90465 3.81185)
(-2.08356e-15 -3.21402 3.6729)
(-3.62952e-16 -2.10885 0.954433)
(6.53737e-16 -2.19364 -1.14289)
(1.44384e-15 -2.39013 -2.32009)
(1.55461e-15 -2.39352 -3.09963)
(1.69487e-15 -2.54116 -3.11625)
(2.29882e-15 -3.55607 -1.26801)
(1.00895e-15 -5.58526 1.73994)
(3.17366e-16 -7.3992 3.42362)
(6.59174e-16 -8.52892 3.89356)
(7.79768e-16 -9.29499 4.61348)
(1.35698e-16 -9.86567 5.2437)
(-2.33659e-16 -9.46291 5.71755)
(2.20168e-15 -8.69278 7.11664)
(3.91339e-15 -7.90327 9.87433)
(-5.53287e-16 -4.71007 9.18369)
(-4.58581e-15 -0.805078 1.00794)
(-3.44655e-15 0.242507 0.876898)
(-3.28806e-15 -3.84609 4.10281)
(-5.84205e-16 -2.34688 3.51632)
(2.26542e-15 -0.889283 0.430943)
(2.2268e-15 -1.62082 -0.98295)
(2.15601e-15 -2.22886 -1.39697)
(1.83648e-15 -2.52756 -1.1453)
(1.66103e-15 -3.24352 0.066987)
(1.42254e-15 -4.58066 2.10877)
(6.5495e-16 -6.23512 3.64803)
(6.32663e-16 -7.64709 4.19069)
(8.93991e-16 -8.73142 4.50996)
(6.81077e-16 -9.56111 5.15755)
(-4.94246e-17 -10.1042 5.7066)
(4.43126e-16 -9.93964 6.34128)
(3.23611e-15 -9.54926 8.13217)
(3.00626e-15 -7.85007 9.84508)
(-2.4973e-15 -1.65986 5.65418)
(-4.40439e-15 3.36222 -1.20217)
(-4.48178e-15 1.96258 -3.09116)
(-2.82998e-15 -3.77924 4.35685)
(9.87506e-16 -1.76376 4.23621)
(3.41492e-15 -0.465274 3.21557)
(2.61176e-15 -1.50519 2.57971)
(2.21467e-15 -2.32603 2.33062)
(1.90493e-15 -2.92272 2.76997)
(1.59118e-15 -3.79663 3.5083)
(1.22609e-15 -5.00731 4.32113)
(9.51207e-16 -6.41958 4.73741)
(1.03981e-15 -7.74876 4.87984)
(1.02323e-15 -8.90442 5.16189)
(4.82755e-16 -9.77817 5.69334)
(-5.31437e-17 -10.3293 6.17676)
(1.2027e-15 -10.424 6.97145)
(3.56771e-15 -10.0326 8.60368)
(1.54672e-15 -6.8488 8.41199)
(-4.96417e-15 0.710518 1.16925)
(-4.42706e-15 3.50822 -0.736927)
(-3.31671e-15 1.83679 -1.44762)
(-2.41014e-15 -3.86453 4.64993)
(1.65018e-15 -1.66226 5.64453)
(3.29505e-15 -0.180854 6.18006)
(2.57765e-15 -1.28692 5.68)
(2.28105e-15 -2.30082 5.28151)
(2.10775e-15 -3.02767 5.32431)
(1.84007e-15 -3.91297 5.41026)
(1.56351e-15 -5.08693 5.534)
(1.40234e-15 -6.4574 5.57207)
(1.29939e-15 -7.82057 5.63137)
(9.41417e-16 -9.05005 5.85914)
(2.54631e-16 -9.97858 6.25933)
(1.63757e-16 -10.6347 6.72276)
(1.88316e-15 -10.9556 7.60417)
(3.35639e-15 -10.1156 8.61109)
(9.99975e-17 -5.19813 6.43811)
(-5.47777e-15 2.00755 -1.23099)
(-4.45369e-15 3.87144 -0.904605)
(-3.08563e-15 2.54908 -1.52859)
(-2.21186e-15 -4.26374 4.91032)
(1.69116e-15 -2.41218 6.822)
(3.22557e-15 -0.63406 8.18578)
(2.59166e-15 -1.22354 7.69625)
(2.27106e-15 -2.1816 7.02772)
(2.15463e-15 -2.96257 6.76916)
(1.97894e-15 -3.86424 6.58117)
(1.78145e-15 -5.05565 6.50534)
(1.57457e-15 -6.44739 6.46756)
(1.24909e-15 -7.86443 6.48438)
(6.82736e-16 -9.15214 6.59945)
(1.30565e-16 -10.1235 6.8522)
(5.71655e-16 -10.8349 7.33463)
(2.33062e-15 -11.1037 8.2192)
(2.67683e-15 -9.45818 8.34349)
(-1.27315e-15 -2.98875 4.52404)
(-4.82886e-15 3.40627 -0.874771)
(-4.05629e-15 3.8115 -0.832745)
(-2.81051e-15 2.60693 -1.49006)
(-2.20045e-15 -4.60541 4.94316)
(1.57781e-15 -2.74872 7.69738)
(3.41763e-15 -0.338978 10.2422)
(2.87113e-15 -0.768137 9.92647)
(2.33932e-15 -1.91674 8.74906)
(2.05555e-15 -2.85657 8.05352)
(1.78636e-15 -3.83387 7.55474)
(1.53222e-15 -5.06961 7.25143)
(1.23264e-15 -6.46752 7.08813)
(7.88912e-16 -7.88096 7.02084)
(2.57195e-16 -9.18631 7.07759)
(1.17026e-16 -10.2746 7.41096)
(1.09443e-15 -11.2362 8.17747)
(2.5723e-15 -11.5009 8.92952)
(1.75777e-15 -8.86354 7.70434)
(-2.74071e-15 -1.17322 2.29224)
(-4.72699e-15 4.14733 -0.426264)
(-3.864e-15 4.09355 -0.814523)
(-2.6157e-15 2.92336 -1.53005)
(-2.44835e-15 -5.52464 4.62518)
(6.58983e-16 -4.8205 7.39988)
(2.72799e-15 -1.78884 10.9578)
(2.84433e-15 -0.750616 11.9546)
(2.58269e-15 -1.4151 11.2394)
(2.29215e-15 -2.4262 10.5418)
(1.89151e-15 -3.47829 9.89421)
(1.47446e-15 -4.8035 9.32607)
(1.06529e-15 -6.30659 8.9172)
(6.78055e-16 -7.84213 8.69305)
(4.81697e-16 -9.3167 8.70182)
(8.12014e-16 -10.5756 9.02445)
(1.69145e-15 -11.365 9.46963)
(2.00503e-15 -10.601 9.06463)
(-3.1619e-17 -6.43183 6.20501)
(-4.30087e-15 0.693916 0.658059)
(-4.73576e-15 4.5359 -0.330735)
(-3.81053e-15 4.4331 -0.959292)
(-2.51926e-15 3.10621 -1.59381)
(-6.63659e-17 3.65294 6.39612)
(3.10654e-16 14.5366 25.5034)
(1.81906e-16 19.6913 33.5088)
(1.73269e-17 19.2607 31.9222)
(-5.97157e-17 17.3891 27.9981)
(-3.75198e-16 15.8172 24.6154)
(-7.66605e-16 14.5715 22.0554)
(-9.96619e-16 13.6897 20.1559)
(-1.20338e-15 12.9146 18.5114)
(-1.48802e-15 12.1341 16.9482)
(-1.83922e-15 11.3194 15.4079)
(-2.24178e-15 10.4668 13.8882)
(-2.68222e-15 9.5792 12.4042)
(-3.24193e-15 8.66653 10.9626)
(-4.00952e-15 7.71601 9.56501)
(-4.9847e-15 6.73529 8.18969)
(-6.10116e-15 5.66474 6.81731)
(-7.49187e-15 4.55275 5.37352)
(-8.61268e-15 3.09608 3.76752)
(-1.29834e-14 1.40892 1.19398)
(-5.49553e-17 1.58404 1.70472)
(1.04704e-15 14.4463 23.0726)
(7.0586e-16 19.822 32.3139)
(5.92434e-16 19.1682 31.251)
(6.82031e-16 17.1816 27.8226)
(7.74498e-16 15.7208 25.0603)
(6.6956e-16 14.7472 23.0741)
(5.51626e-16 13.9379 21.3169)
(3.70776e-16 13.0951 19.5469)
(2.49776e-16 12.1753 17.7028)
(1.02e-16 11.1795 15.8059)
(-9.22079e-17 10.1244 13.8889)
(-3.10723e-16 9.01825 11.9816)
(-6.06659e-16 7.8736 10.0952)
(-1.08584e-15 6.67177 8.23928)
(-1.81669e-15 5.43245 6.37614)
(-2.73892e-15 4.05792 4.49319)
(-3.86245e-15 2.60348 2.27335)
(-4.69718e-15 0.271586 -0.480225)
(-1.28924e-14 -0.918277 -4.08191)
(-4.4316e-17 8.95596 14.676)
(3.87298e-16 19.3843 29.8749)
(3.59012e-16 21.4509 33.3005)
(3.2563e-16 20.1074 31.219)
(3.58348e-16 18.4086 28.5734)
(9.11176e-16 17.3009 26.4817)
(8.33962e-16 16.359 24.6984)
(7.64292e-16 15.4092 22.8396)
(7.69026e-16 14.3268 20.8443)
(7.76998e-16 13.1469 18.7266)
(8.55262e-16 11.8798 16.536)
(9.32604e-16 10.5418 14.2943)
(1.00657e-15 9.12706 12.0225)
(1.1651e-15 7.63957 9.73004)
(1.27159e-15 6.05982 7.43481)
(1.43101e-15 4.40924 5.11947)
(1.14463e-15 2.67586 2.94942)
(-4.53961e-17 0.981477 0.440364)
(-1.60584e-15 -1.6211 -2.33339)
(-1.19587e-14 -2.49803 -6.84147)
(5.18558e-18 14.5762 25.1826)
(-5.0886e-17 21.4836 34.7022)
(-4.99356e-17 19.2173 31.942)
(-4.23946e-17 17.3543 28.9473)
(-9.8773e-17 16.207 27.6433)
(7.63909e-16 15.4835 26.4245)
(7.3936e-16 14.3586 24.8189)
(8.8789e-16 13.0333 22.7037)
(1.07051e-15 11.4713 20.366)
(1.10535e-15 9.8563 17.8917)
(1.40442e-15 8.16299 15.338)
(1.76647e-15 6.40341 12.6574)
(2.39137e-15 4.55576 9.85113)
(3.4569e-15 2.65858 6.93986)
(4.85103e-15 0.73266 3.91452)
(7.79507e-15 -1.23363 0.84451)
(1.105e-14 -2.57924 -1.35905)
(6.87323e-15 -3.3162 -2.84711)
(-4.3347e-16 -5.01383 -5.45511)
(-5.4556e-15 -3.34322 -5.81619)
(4.16192e-19 15.966 28.5451)
(4.09128e-18 18.6628 32.0317)
(1.08311e-18 15.468 28.0727)
(3.23756e-18 14.5907 26.5798)
(-2.15581e-17 13.6173 25.816)
(-1.78687e-16 12.6059 24.4628)
(-1.65631e-16 11.0826 22.5966)
(-1.64036e-16 9.42603 20.2987)
(-1.72932e-16 7.63395 17.8984)
(-1.92708e-16 5.84344 15.4246)
(-1.95055e-16 3.98824 12.8899)
(-3.60206e-17 2.1063 10.2752)
(3.24984e-16 0.235214 7.65065)
(4.35142e-16 -1.47641 5.16895)
(-5.54828e-16 -2.82292 3.0667)
(-2.95198e-15 -3.63203 1.46354)
(-5.56911e-15 -3.73159 0.47368)
(-6.37756e-15 -2.52989 0.947645)
(-4.6671e-15 0.290916 3.72586)
(-1.04785e-15 2.35896 5.99628)
(-4.08037e-19 13.683 24.4798)
(1.55179e-18 16.642 29.604)
(2.95313e-18 14.4588 26.2904)
(3.83079e-18 13.017 23.8611)
(8.12127e-18 11.7124 22.4216)
(1.66099e-17 10.5282 20.8864)
(6.38222e-18 9.03715 19.1019)
(-9.20527e-19 7.48123 16.9667)
(-1.76973e-17 5.81905 14.682)
(-5.45562e-17 4.16327 12.2715)
(-7.51129e-17 2.52055 9.83272)
(1.58227e-17 1.01993 7.51237)
(1.59027e-16 -0.167802 5.59634)
(-1.44227e-16 -0.764724 4.48395)
(-1.42543e-15 -0.47562 4.63002)
(-3.19062e-15 0.991597 6.49921)
(-3.89471e-15 3.69628 10.1546)
(-2.64051e-15 7.04682 14.5012)
(-4.65068e-16 9.49441 16.9728)
(5.45986e-16 7.08978 13.4949)
(1.06568e-19 12.2053 21.3896)
(-8.70363e-19 17.3564 30.0886)
(-1.31579e-18 15.2828 26.5804)
(-1.59743e-18 13.5102 22.8799)
(-7.05466e-19 12.0871 20.8052)
(2.27573e-18 11.219 18.9899)
(5.94664e-18 10.1752 17.4094)
(9.04445e-18 9.27146 15.6757)
(1.27637e-17 8.31114 13.9428)
(1.61363e-17 7.44985 12.1796)
(1.50886e-17 6.65279 10.481)
(5.30232e-18 6.03022 8.96469)
(-7.15015e-18 5.61383 7.77998)
(1.60889e-18 5.57537 7.22444)
(6.49828e-17 5.98712 7.51929)
(2.38692e-16 6.88744 8.86494)
(5.7635e-16 8.1178 10.9458)
(9.43752e-16 8.96298 13.0941)
(9.61248e-16 8.99105 13.7081)
(3.11822e-16 6.39946 11.0173)
(-2.65784e-20 12.114 21.1399)
(3.00787e-19 18.2821 31.0743)
(4.1858e-19 16.1721 28.0182)
(5.30715e-19 14.5057 24.1628)
(1.08685e-19 13.0784 22.0428)
(-1.52218e-18 12.3794 20.2248)
(-2.74129e-18 11.5531 18.7493)
(-3.59032e-18 10.8963 17.2608)
(-4.48542e-18 10.2384 15.8578)
(-5.1992e-18 9.64719 14.4935)
(-5.13731e-18 9.09323 13.1512)
(-4.40745e-18 8.5586 11.8073)
(-4.1402e-18 8.0309 10.4567)
(-4.90958e-18 7.51057 9.17153)
(-5.56026e-18 7.04904 8.10918)
(-7.29042e-18 6.70342 7.50676)
(-2.04638e-17 6.49799 7.4983)
(-6.28516e-17 6.29098 7.84027)
(-1.46941e-16 5.53324 7.72665)
(-1.99259e-16 3.42208 4.84274)
(5.43666e-21 12.7549 22.2232)
(-9.15868e-20 19.1335 31.8989)
(-1.22936e-19 16.6115 28.6938)
(-1.58445e-19 15.1309 24.9131)
(-5.1249e-20 13.7051 23.0153)
(4.59864e-19 13.0812 21.2241)
(8.49107e-19 12.2114 19.7419)
(1.06911e-18 11.5012 18.1857)
(1.24783e-18 10.7524 16.7137)
(1.42232e-18 10.0415 15.2802)
(1.56915e-18 9.34705 13.8989)
(1.71381e-18 8.66304 12.5616)
(1.88262e-18 7.98291 11.258)
(1.85605e-18 7.30021 9.97226)
(1.07396e-18 6.58785 8.69799)
(-9.77063e-19 5.8562 7.43075)
(-4.48935e-18 5.01825 6.22892)
(-9.84445e-18 4.15336 4.99334)
(-1.40823e-17 2.68707 3.51663)
(-1.61213e-17 0.822868 -0.175833)
(-9.46869e-22 14.0955 24.8109)
(2.7009e-20 19.8978 32.5781)
(3.60638e-20 16.6666 29.0402)
(4.53481e-20 15.7013 25.5636)
(2.13575e-20 14.1975 23.9834)
(-1.16702e-19 13.7161 22.1381)
(-2.3417e-19 12.7438 20.6895)
(-2.94593e-19 12.0752 19.0865)
(-3.27794e-19 11.2963 17.6052)
(-3.5914e-19 10.5701 16.0874)
(-4.0065e-19 9.80196 14.5559)
(-4.55e-19 8.99153 12.9799)
(-4.87321e-19 8.12135 11.3716)
(-3.97087e-19 7.19899 9.74226)
(-4.39865e-20 6.19869 8.10674)
(6.66481e-19 5.14784 6.42492)
(1.78446e-18 3.91688 4.68868)
(3.75521e-18 2.63623 2.67225)
(9.89695e-18 0.491522 0.234044)
(9.0996e-18 -0.789794 -3.38311)
(1.52012e-22 15.7863 28.361)
(-7.77711e-21 20.245 32.6439)
(-1.03733e-20 16.4565 29.2916)
(-1.24434e-20 16.3073 26.3529)
(-7.42695e-21 14.5996 25.0981)
(2.69012e-20 14.3586 23.1697)
(5.90925e-20 13.2415 21.8337)
(7.49704e-20 12.7256 20.2346)
(8.06056e-20 11.9319 18.8428)
(8.47898e-20 11.2622 17.2993)
(9.15979e-20 10.4438 15.6705)
(9.86757e-20 9.53578 13.8597)
(9.15071e-20 8.48041 11.8978)
(4.59982e-20 7.2973 9.79908)
(-5.17097e-20 5.9678 7.61917)
(-1.78361e-19 4.55482 5.34395)
(-3.14767e-19 2.9093 3.00462)
(-2.29457e-19 1.28577 0.366464)
(-3.24042e-19 -1.29388 -2.39677)
(1.57413e-17 -2.25474 -6.13371)
(-1.73495e-23 17.0396 31.4876)
(2.18411e-21 19.7442 31.6667)
(2.84432e-21 16.0119 29.4521)
(3.21072e-21 16.5389 26.9652)
(1.91907e-21 14.4991 25.9457)
(-6.70347e-21 14.5009 23.9776)
(-1.4837e-20 13.1691 22.8564)
(-1.86277e-20 12.8408 21.318)
(-1.98819e-20 11.9327 20.0885)
(-2.05529e-20 11.296 18.5257)
(-1.82917e-20 10.3185 16.8149)
(-7.98634e-21 9.24045 14.7357)
(1.1123e-20 7.87073 12.3441)
(3.36374e-20 6.29625 9.66713)
(5.9944e-20 4.57595 6.91273)
(7.84306e-20 2.80539 4.08601)
(3.56286e-20 0.791249 1.17696)
(3.14402e-20 -0.837958 -2.13065)
(-2.61979e-18 -3.34626 -4.50285)
(1.47456e-17 -3.57314 -8.43874)
(-2.5779e-24 17.1494 32.4344)
(-5.96639e-22 18.5793 29.9643)
(-7.39728e-22 15.3834 29.0464)
(-8.35687e-22 15.9414 26.6581)
(-4.66051e-22 13.738 25.7055)
(1.71635e-21 13.6825 23.7933)
(3.52746e-21 12.2104 22.7804)
(3.82815e-21 11.8156 21.3219)
(2.84838e-21 10.7331 20.1801)
(3.24361e-21 9.97357 18.6287)
(1.16734e-20 8.77446 16.8787)
(3.05145e-20 7.46222 14.5729)
(4.18042e-20 5.71064 11.7183)
(2.66043e-20 3.78481 8.49851)
(7.46402e-21 1.93431 5.474)
(-4.31828e-20 0.207438 2.73191)
(-2.33725e-19 -1.2348 0.345185)
(-3.23377e-19 -2.88269 -2.64471)
(1.05669e-18 -5.10383 -6.04656)
(6.20792e-18 -3.56274 -6.00762)
(4.40383e-24 16.3121 31.2023)
(1.53348e-22 17.908 28.7693)
(1.82386e-22 14.6054 27.9458)
(1.6554e-22 15.1738 25.4053)
(-5.33539e-23 12.8382 24.4847)
(-6.36449e-22 12.6896 22.5062)
(-9.95533e-22 11.1242 21.423)
(-1.35413e-21 10.5235 19.9254)
(-2.18911e-21 9.35726 18.7436)
(-1.2025e-21 8.4446 17.3024)
(8.31722e-21 7.23095 15.7002)
(2.68307e-20 5.86001 13.5724)
(3.17719e-20 4.11025 10.8017)
(-7.26761e-21 2.21043 7.62463)
(-1.08183e-19 0.436771 4.65189)
(-3.48758e-19 -1.22184 1.86173)
(-8.00825e-19 -2.61359 -0.693266)
(-1.1524e-18 -2.60233 -1.41615)
(-8.47661e-19 -0.731006 0.770395)
(-6.8858e-20 1.4667 4.25254)
(-1.26299e-24 15.7335 30.5103)
(-3.45422e-23 18.024 28.1107)
(-4.19174e-23 14.1818 27.3119)
(-4.6172e-23 15.2604 24.4372)
(-5.52315e-24 12.635 23.6057)
(1.26168e-22 12.7383 21.3665)
(2.32899e-22 11.0686 20.1704)
(2.42606e-22 10.5217 18.44)
(-1.63393e-23 9.3741 17.1082)
(-3.68517e-22 8.56754 15.6472)
(1.08811e-21 7.58959 14.248)
(6.51362e-21 6.61759 12.6412)
(7.31211e-21 5.46172 10.6678)
(-2.92551e-20 4.13945 8.17434)
(-1.39602e-19 2.84483 5.52273)
(-2.92673e-19 2.19979 3.89772)
(-3.62986e-19 2.81178 4.29969)
(-3.46851e-19 3.57163 5.35352)
(-2.53462e-19 4.5139 6.29715)
(-1.09093e-19 3.68259 6.68054)
(3.07562e-25 15.6505 30.9219)
(6.89516e-24 18.5301 28.2916)
(6.09805e-24 14.3665 27.6667)
(1.88838e-24 15.7593 24.7028)
(-3.72069e-24 13.1814 23.8729)
(1.82937e-24 13.3417 21.6823)
(5.28261e-23 11.8987 20.405)
(1.44077e-22 11.3776 18.7036)
(2.54583e-22 10.443 17.2737)
(2.40522e-22 9.72924 15.7872)
(-5.06124e-22 8.96198 14.3842)
(-2.75483e-21 8.24815 13.001)
(-5.23684e-21 7.55329 11.6286)
(-2.85527e-21 6.85987 10.1921)
(9.01802e-21 6.13113 8.5494)
(2.23434e-20 5.2106 6.60701)
(4.02778e-20 4.23302 4.68965)
(1.56315e-21 2.81177 2.40266)
(-1.13541e-19 1.1025 0.256088)
(-2.08491e-19 0.350432 -1.07831)
(-7.15715e-26 15.4826 31.4061)
(-1.82278e-24 18.6498 28.2545)
(-3.1902e-24 14.2983 27.9589)
(-1.93159e-24 15.7168 25.1359)
(1.52791e-23 13.3215 24.2652)
(6.53774e-23 13.3252 22.2912)
(1.42862e-22 12.1178 21.0098)
(2.04346e-22 11.5728 19.4713)
(1.5664e-22 10.8068 18.1094)
(-6.90015e-23 10.1818 16.7276)
(-3.36514e-22 9.55155 15.383)
(-2.42347e-22 8.94386 14.0248)
(6.00485e-22 8.30119 12.5993)
(2.30207e-21 7.55032 10.9824)
(4.93431e-21 6.53736 9.00242)
(8.88747e-21 5.13362 6.46083)
(1.4971e-20 3.26627 3.55233)
(3.30939e-20 1.77146 1.49554)
(3.15697e-20 -0.284152 -0.552823)
(-9.30998e-20 -1.06348 -3.78172)
(-5.09378e-26 14.4037 31.0797)
(-2.849e-25 18.2755 27.856)
(-5.04775e-25 13.5456 27.7569)
(4.27398e-24 14.544 25.3561)
(2.59528e-23 12.4632 24.414)
(7.73864e-23 12.0524 22.7955)
(1.50791e-22 10.9698 21.5713)
(1.90289e-22 10.286 20.2355)
(8.34956e-23 9.51969 19.0101)
(-2.66503e-22 8.87333 17.7914)
(-7.08392e-22 8.24886 16.6098)
(-4.80607e-22 7.65822 15.401)
(1.8566e-21 7.00952 14.048)
(7.25379e-21 6.14892 12.2781)
(1.32338e-20 4.79938 9.6297)
(1.51064e-20 2.50717 5.43843)
(3.35236e-20 -0.841191 -0.650224)
(1.10414e-19 -2.54521 -4.61733)
(1.02662e-19 -3.56526 -4.38618)
(-7.35168e-20 -2.49172 -6.30648)
(-7.64686e-26 11.3158 28.7408)
(-3.05174e-25 17.0382 25.1356)
(3.60856e-25 12.0393 25.5345)
(5.28112e-24 12.6565 23.8453)
(2.12273e-23 10.9123 23.1162)
(5.51695e-23 10.2285 22.0461)
(1.02164e-22 9.21983 21.1483)
(1.27649e-22 8.42765 20.2158)
(5.70035e-23 7.64 19.3226)
(-1.83746e-22 6.93342 18.4365)
(-5.19092e-22 6.27123 17.5601)
(-4.84395e-22 5.64561 16.6576)
(8.04301e-22 5.00368 15.6405)
(3.86033e-21 4.25506 14.3172)
(7.10553e-21 3.27411 12.4087)
(6.11382e-21 1.9963 9.67268)
(-2.75478e-21 0.588108 6.11029)
(-1.61226e-20 -0.699796 2.2425)
(-3.16826e-20 -1.69529 -0.938061)
(-4.67039e-20 -1.54966 -2.67092)
(-2.13461e-26 2.61774 17.0954)
(2.69793e-27 8.04564 13.698)
(3.23696e-25 5.16478 14.5592)
(1.43939e-24 4.97033 14.1737)
(4.25516e-24 4.04149 14.141)
(1.04248e-23 3.46956 13.9748)
(2.18499e-23 2.88601 13.826)
(3.77974e-23 2.40662 13.646)
(4.63124e-23 1.98823 13.4486)
(8.30296e-24 1.64274 13.2297)
(-1.58386e-22 1.36748 12.9942)
(-5.64911e-22 1.16951 12.7522)
(-1.2566e-21 1.05757 12.5208)
(-2.03212e-21 1.05265 12.3073)
(-2.35295e-21 1.17716 12.0863)
(-1.67096e-21 1.39109 11.8109)
(-1.28078e-22 1.7188 11.353)
(1.27187e-21 2.45603 10.377)
(1.66305e-21 2.73413 8.91176)
(9.49115e-22 -0.121813 6.78075)
(2.54117e-26 -2.61774 17.0954)
(-5.86514e-27 -8.04564 13.698)
(-4.00411e-25 -5.16478 14.5592)
(-1.73315e-24 -4.97032 14.1737)
(-4.98209e-24 -4.04147 14.141)
(-1.20586e-23 -3.46953 13.9748)
(-2.54151e-23 -2.88597 13.8261)
(-4.42494e-23 -2.40655 13.6461)
(-5.30537e-23 -1.98813 13.4487)
(-1.49156e-24 -1.64262 13.2298)
(2.1387e-22 -1.36733 12.9943)
(7.28614e-22 -1.16937 12.7524)
(1.5892e-21 -1.05749 12.5213)
(2.52918e-21 -1.0527 12.3081)
(2.86758e-21 -1.17735 12.0873)
(1.93548e-21 -1.39138 11.8119)
(-4.66544e-23 -1.71916 11.3539)
(-1.78594e-21 -2.45645 10.3779)
(-2.21011e-21 -2.73454 8.91251)
(-1.23484e-21 0.121647 6.78112)
(8.65519e-26 -11.316 28.741)
(3.41437e-25 -17.0382 25.1359)
(-4.16256e-25 -12.0393 25.5348)
(-5.66634e-24 -12.6564 23.8457)
(-2.26207e-23 -10.9122 23.1166)
(-5.94139e-23 -10.2284 22.0466)
(-1.10963e-22 -9.21963 21.1489)
(-1.35484e-22 -8.42739 20.2164)
(-4.02556e-23 -7.63968 19.3233)
(2.65546e-22 -6.93304 18.4373)
(6.80934e-22 -6.27078 17.561)
(6.17497e-22 -5.64502 16.6585)
(-1.01449e-21 -5.00278 15.641)
(-4.77742e-21 -4.25359 14.3169)
(-8.54041e-21 -3.27194 12.4071)
(-6.62938e-21 -1.99396 9.67009)
(5.38491e-21 -0.586624 6.10763)
(2.27403e-20 0.700443 2.2411)
(4.23212e-20 1.69623 -0.939053)
(6.0802e-20 1.55027 -2.6718)
(5.47174e-26 -14.4041 31.0805)
(2.26581e-25 -18.2758 27.857)
(4.65595e-25 -13.546 27.7578)
(-3.78583e-24 -14.5443 25.357)
(-2.46695e-23 -12.4636 24.415)
(-7.76016e-23 -12.0527 22.7966)
(-1.56404e-22 -10.9702 21.5725)
(-1.95244e-22 -10.2864 20.2368)
(-5.41338e-23 -9.52008 19.0115)
(3.87823e-22 -8.8738 17.7929)
(9.31627e-22 -8.2494 16.6116)
(6.08977e-22 -7.65878 15.4029)
(-2.36639e-21 -7.00982 14.0496)
(-9.06872e-21 -6.14837 12.2783)
(-1.61233e-20 -4.79699 9.62701)
(-1.75135e-20 -2.50151 5.43061)
(-4.07644e-20 0.847695 -0.661175)
(-1.41099e-19 2.54563 -4.61371)
(-1.31249e-19 3.56575 -4.38426)