/*--------------------------------*- C++ -*----------------------------------*\
| =========                 |                                                 |
| \\      /  F ield         | OpenFOAM: The Open Source CFD Toolbox           |
|  \\    /   O peration     | Version:  4.1                                   |
|   \\  /    A nd           | Web:      www.OpenFOAM.org                      |
|    \\/     M anipulation  |                                                 |
\*---------------------------------------------------------------------------*/
FoamFile
{
    version     2.0;
    format      ascii;
    class       volScalarField;
    location    "12";
    object      p;
}
// * * * * * * * * * * * * * * * * * * * * * * * * * * * * * * * * * * * * * //

dimensions      [0 2 -2 0 0 0 0];

internalField   nonuniform List<scalar> 
1280
(
-0.0104551
0.0598784
-0.102387
-0.210762
-0.0687781
-0.386638
-0.711094
-0.732472
-0.948932
-1.49464
-2.45579
-2.08684
-3.3083
-5.2599
-4.70836
-6.99297
-10.5388
-9.47494
-13.5623
-20.6238
-17.9942
-4.24076
15.7972
24.7002
24.912
28.2052
-4.19561
8.68698
8.93826
8.91661
8.48344
7.81617
7.16731
5.97927
5.01966
3.24111
2.34843
0.293017
0.108375
0.995567
-17.2972
-7.27608
-0.508865
4.93574
16.1582
16.4279
16.3514
16.621
15.8448
16.0658
16.1778
15.1425
16.1322
15.8688
15.7789
16.0355
4.22149
-1.2392
-8.32364
-20.2131
-1.23556
-1.24771
-1.01468
1.38973
2.4831
4.54439
5.81399
7.3183
8.26202
9.01898
9.46473
9.72182
8.96483
-3.14589
29.7672
24.0918
21.8974
16.9703
-0.385314
-15.8633
-22.0891
-12.2928
-10.1287
-10.9318
-7.00674
-5.23035
-6.27125
-3.71237
-2.82023
-3.56621
-2.01215
-1.68646
-1.76855
-1.65512
-0.91894
-0.397599
-1.02323
-0.396162
-0.186923
-0.418294
0.192294
-0.0657745
-0.106993
-0.306278
-0.346838
0.261129
0.451668
0.550564
0.342885
0.024649
-0.168879
-0.401567
-0.17658
-0.0461885
-0.262066
-0.207437
-0.0597018
-0.183015
0.170218
0.637666
0.0580141
-0.352322
-0.959377
-0.809008
0.467538
1.04588
1.38794
0.979748
0.269203
-0.245167
-0.860425
-0.0865277
0.198424
-0.446053
-0.307767
0.025971
-0.13575
-0.0188707
1.20884
0.378157
-0.804537
-1.74095
-1.24311
0.41683
1.26693
1.67373
1.05627
0.036853
-0.996714
-2.02609
-0.171242
0.235444
-0.807799
-0.630199
-0.0569992
-0.450951
-0.181873
1.82591
0.601112
-1.15257
-2.4157
-1.94408
0.200621
1.30379
1.80151
1.21008
0.312384
-1.64729
-3.07474
-0.279511
0.322447
-1.13915
-0.974475
0.00667088
-0.338018
0.126762
2.41384
0.869632
-1.34469
-3.04996
-2.79934
-0.311356
0.967766
1.6485
1.39448
0.608256
-3.42656
-4.93736
-0.0963368
0.263825
-1.71498
-1.40188
-0.0704503
-0.88014
-0.418554
2.94378
0.917136
-1.2882
-3.70523
-3.74204
-1.2264
0.323668
1.44793
1.94904
1.08983
-4.94966
-6.91457
-0.267401
-0.117965
-2.44527
-2.08729
0.104889
0.167488
0.233835
2.90125
0.604867
-1.03012
-4.51827
-4.53448
-2.25139
-0.0577894
1.70236
2.91751
1.83406
-4.38122
-6.66243
0.0577812
-0.755037
-3.02634
-2.55772
-0.226588
-1.47978
-1.69799
2.49809
0.731906
-0.307245
-4.9162
-5.17888
-3.34242
-0.273435
2.24816
3.34072
1.94849
-3.29083
-6.4895
-0.650716
-1.8983
-4.71436
-3.69734
0.951784
4.03632
1.15791
2.02961
1.50261
0.814302
-3.97965
-5.08184
-4.32342
-1.23932
1.29059
1.27107
-0.390795
-2.02274
-2.0842
1.20181
-0.330938
-2.55895
-2.78744
0.316552
14.0025
21.3798
1.73316
2.49535
2.06005
-2.15989
-3.99386
-4.6209
-2.69127
-1.38611
-2.2973
-3.43049
-1.27338
2.4338
4.51898
2.49095
1.14258
0.489841
5.67862
28.2319
16.2599
1.6101
3.51012
3.34284
-0.190399
-2.48355
-4.20339
-3.77458
-3.95988
-5.59729
-6.72369
-1.29998
5.71102
6.63621
4.08688
2.65904
1.04892
5.50088
28.7263
18.0902
1.65554
4.30846
4.31412
1.41084
-1.0871
-3.7854
-5.01608
-6.44822
-8.02403
-8.41813
0.0653588
10.7043
8.47497
4.82095
3.83931
1.05551
-0.266748
13.8174
20.198
1.92779
4.94757
5.06571
2.65356
-0.0273168
-3.64305
-6.08694
-7.60992
-8.88353
-8.76912
-1.04846
7.98486
7.19969
4.55513
3.96626
0.72611
-2.49796
-0.0660161
-1.31789
2.30679
5.38093
5.56382
3.54909
0.683727
-3.61187
-6.80424
-8.51082
-10.2412
-9.94397
-1.48932
8.55129
8.80844
5.14556
2.85388
-0.10497
-3.26033
-5.42126
-2.65445
2.57746
5.45642
5.68301
3.91766
0.913241
-3.65857
-6.80566
-8.32861
-9.59128
-9.13643
-2.18973
6.61062
8.26742
5.51765
3.15294
0.533643
-1.30935
-2.07035
-0.909707
2.61659
4.92793
5.22918
3.64297
0.612633
-3.88261
-6.28315
-7.57244
-7.8395
-7.24309
-1.73944
5.59405
7.5106
5.43563
2.97118
0.44644
-1.35176
-2.74994
-1.2099
2.45819
3.97159
4.32414
2.96225
0.210506
-3.70962
-5.01978
-6.43085
-5.75293
-5.22674
-1.37007
4.15093
5.98043
4.5483
2.52775
0.512635
-0.544791
-1.21878
-0.247634
2.02525
2.72129
3.10575
2.01686
-0.204975
-3.12106
-3.76773
-4.90359
-3.98589
-3.49625
-0.917805
3.02491
4.50048
3.40308
1.82601
0.341417
-0.395533
-1.0344
-0.325123
1.49726
1.1659
1.75718
1.17849
-0.0491628
-1.58138
-2.69367
-3.38312
-2.69979
-2.2093
-0.5237
2.02678
3.06551
2.23097
1.1166
0.232811
-0.0842296
-0.30808
0.0158765
0.287285
-0.185203
0.333124
0.165998
-0.365605
-0.723025
-1.44078
-1.80262
-1.59066
-1.44171
-0.873838
0.217737
0.908459
0.722927
0.35487
0.0525183
-0.0567707
-0.191353
0.0263789
115.464
114.946
115.511
117.225
115.275
113.849
111.296
109.005
106.416
104.322
102.483
100.754
99.4957
98.062
97.3614
96.064
96.0003
94.6466
95.4983
94.5036
54.4441
56.012
58.0112
60.2024
61.1119
62.0502
62.8921
63.537
64.2438
64.9188
65.7887
66.5467
67.6131
68.3801
69.6458
70.3567
71.8443
72.5017
74.3465
75.3604
57.6835
55.9678
56.4791
56.4697
56.7804
56.0633
56.193
55.8558
55.9644
56.1836
56.8882
57.7264
58.9367
60.1536
61.8466
63.3282
65.4188
66.8431
69.124
69.9877
47.1257
44.1283
44.7163
43.5969
43.5391
41.7792
41.3457
40.2435
39.6103
39.0595
38.9346
39.1294
39.7668
40.7527
42.3306
44.1491
46.6415
48.5246
51.3291
51.6567
68.8938
66.6111
67.8439
66.7418
67.3125
65.9673
65.407
64.5237
63.5773
62.7713
61.665
60.6537
59.3464
58.1234
56.9406
56.1339
56.2312
56.5748
59.5306
59.652
65.7367
65.0404
66.4555
65.5744
67.3094
65.8575
65.2943
64.8272
63.3524
62.6553
61.0623
60.0261
58.1414
56.1515
53.4159
50.307
48.111
45.9932
48.057
48.2649
69.1625
68.9034
69.4814
68.2686
71.2125
68.187
68.246
68.3109
66.9913
67.1876
65.3282
64.9293
63.202
61.8933
60.4441
58.4044
57.6693
55.8705
57.461
56.5813
72.9312
73.7361
73.1745
72.4642
76.7689
72.3669
72.8225
73.4849
72.0481
72.7746
71.1615
71.2743
70.271
69.9874
69.925
69.8559
70.8553
70.804
72.6423
71.878
72.8831
75.1262
73.3333
73.2115
78.9394
73.8915
74.053
76.0048
74.3595
75.2657
74.146
74.0659
73.4188
72.9725
72.7719
72.509
73.1114
73.265
75.1089
75.0293
67.6034
71.2069
68.28
68.7878
76.9203
71.1124
70.7073
74.8547
73.5319
74.7145
74.5394
74.6247
74.7456
74.5384
74.6403
74.3704
74.6952
74.7824
76.337
76.9364
54.1144
58.0092
54.8334
55.4137
63.8577
60.0368
59.843
64.344
64.8055
65.5395
66.6192
67.0253
68.0598
68.5022
69.285
69.5879
70.398
71.042
72.8212
74.4279
35.4219
37.6347
39.9467
39.3243
44.4504
39.4365
43.6107
42.2357
45.3025
44.647
46.7607
46.933
48.3831
49.1018
50.3635
51.5905
53.3268
55.3565
57.373
59.3109
11.259
11.479
12.9335
11.039
14.0279
11.5826
15.4822
14.3502
16.8857
15.9271
17.5831
17.6639
18.7656
19.5135
20.3839
21.1719
21.8701
23.6376
24.989
28.5573
19.7784
17.807
17.6909
14.1506
14.6089
10.1665
12.4185
10.3827
10.3127
7.61182
6.96471
6.11371
6.35242
6.46548
6.90095
8.11838
8.80369
9.92575
10.6015
11.4768
50.3477
49.5423
51.0103
48.7146
50.8027
48.939
50.297
49.4614
50.006
49.7277
49.7234
49.4658
49.197
48.7231
47.9537
46.5228
44.1616
42.6002
41.4096
39.6015
39.8008
39.8983
42.3437
40.21
43.5398
42.582
44.8864
45.5091
47.2924
48.7575
50.5731
52.371
54.2187
56.0485
57.8287
59.4114
60.572
61.0979
61.2025
61.4469
41.2
39.2906
41.9767
36.6438
38.1216
34.7405
34.246
32.415
31.4391
30.3617
29.5967
28.9835
28.5607
28.3517
28.3831
28.8463
29.7762
31.4785
33.6989
36.2262
29.2417
23.3881
31.459
24.7823
26.9025
23.7521
22.6493
20.3223
18.2862
15.9962
13.7307
11.4266
9.16014
6.98452
5.00209
3.58518
2.88821
3.79533
4.95408
7.2532
47.0865
24.8546
32.8202
21.5238
18.6048
11.7658
6.65103
1.23387
-3.45109
-7.61701
-11.0232
-13.62
-15.3147
-16.0318
-15.6647
-14.2343
-11.7462
-8.32812
-5.57259
-3.36338
740.507
657.665
608.514
551.99
502.831
455.381
411.304
369.702
330.599
293.716
258.899
225.957
194.682
165.008
137.001
109.853
83.9629
64.0233
40.9137
3.45409
700.752
617.83
568.62
512.066
462.886
415.447
371.401
329.857
290.832
254.043
219.326
186.483
155.3
125.683
97.6247
70.2377
43.9004
23.6252
0.691053
-36.1057
5.24231
-16.6036
-8.55072
-19.6174
-22.4313
-29.1107
-34.1165
-39.4165
-44.0105
-48.1024
-51.466
-54.0566
-55.7865
-56.5852
-56.3419
-55.063
-52.7461
-49.6833
-46.7421
-43.5227
-2.25213
-7.21381
1.41555
-4.52072
-1.65151
-3.99346
-4.23961
-5.65684
-6.73087
-7.99514
-9.16051
-10.2537
-11.19
-11.9645
-12.6121
-13.0307
-13.0274
-11.7983
-9.95379
-6.76807
20.5136
19.102
22.3691
17.5873
19.6775
17.0817
17.3466
16.4292
16.434
16.44
16.8633
17.4797
18.2737
19.0754
19.6802
19.8031
19.5138
19.3932
20.1055
21.6701
19.5698
17.9289
19.9017
16.6936
19.2447
17.3932
18.8432
18.5325
19.3663
19.6792
20.1602
20.3847
20.1662
19.6461
19.0686
18.0655
16.62
15.2814
14.0888
11.6439
-12.3486
-16.2684
-16.4903
-21.1093
-21.541
-25.8307
-26.3412
-29.2874
-31.5708
-35.2456
-38.1787
-41.3476
-45.3026
-42.9028
-41.8355
-43.5699
-43.695
-43.1453
-43.8624
-42.5808
-66.9814
-69.9798
-70.183
-74.3763
-75.1389
-79.7789
-81.4425
-85.841
-89.0902
-93.2397
-98.0087
-100.167
-107.601
-83.8864
-54.8017
-57.4176
-56.7045
-54.617
-53.6115
-47.8776
-48.5954
-46.7636
-43.6634
-43.7197
-39.854
-39.4964
-35.9137
-34.6151
-31.576
-28.7817
-25.8473
-21.8282
-17.4848
-13.643
-9.72727
-9.54067
-5.01661
2.14201
-1.95898
5.11779
2.36517
6.37634
9.41568
10.3895
14.6603
15.4293
19.0937
20.4916
23.4794
25.57
28.1938
30.2796
32.7329
34.6477
36.9635
39.0335
42.1082
45.8587
44.9398
47.8716
31.197
34.6728
35.9367
36.6241
38.7757
39.2585
40.9854
41.6103
42.8997
43.6699
44.8299
45.7018
46.6274
47.4152
47.797
48.2973
48.5795
49.7721
50.6937
52.9399
47.5213
50.3862
50.8515
51.6604
52.9999
53.2638
54.4084
54.6998
55.4737
55.8409
56.4676
56.8964
57.3679
57.7081
57.9724
58.1181
58.5859
58.9657
60.4739
61.577
56.7285
58.8344
58.9784
59.7554
60.332
60.3265
60.8514
60.7161
60.9563
60.8106
60.8921
60.771
60.8012
60.6213
60.7286
60.5149
61.1246
61.2991
63.1793
63.5493
60.0388
61.5371
61.9865
63.0121
63.162
63.1583
63.3143
63.0396
63.0793
62.7737
62.7457
62.4974
62.5224
62.3282
62.6701
62.7815
63.986
64.5568
66.7999
67.2129
67.1397
67.9688
68.8943
70.1138
69.964
70.0246
69.8004
69.5052
69.3636
68.9845
68.8677
68.5269
68.5233
68.3298
68.7639
68.9629
70.3017
70.6239
72.5892
72.2357
67.1804
67.1364
68.1218
69.2225
68.5329
68.4712
67.6492
67.1153
66.4118
65.6793
64.9277
63.9434
63.004
61.6694
60.6401
58.8035
58.1806
56.2897
57.5291
56.6096
66.1442
65.0552
65.8433
66.5493
65.1613
64.6328
63.0748
62.0693
60.7218
59.5407
58.1944
56.7532
55.0973
53.1304
50.9085
48.1435
46.1445
43.6773
45.1998
45.0364
54.7147
53.1615
53.7793
54.6614
53.1663
52.9654
51.5805
51.1014
50.1708
49.6739
49.0258
48.455
47.7497
46.9358
46.0978
45.2664
45.1844
45.1855
47.8794
48.8125
60.2763
58.2427
58.0139
58.9596
57.3253
57.3975
56.3613
56.2055
55.6856
55.5875
55.6311
55.9494
56.6035
57.3723
58.6218
59.8066
61.707
62.8259
65.1525
65.3445
42.8138
43.2696
43.5223
45.637
45.0044
45.7483
45.7563
46.4836
46.9146
47.5707
48.3173
49.0589
50.1151
50.9455
52.3468
53.2445
55.0736
55.9636
58.1952
58.8156
100.881
100.497
100.183
101.788
99.4485
97.8127
95.178
93.0134
90.6436
88.7786
87.1787
85.7905
84.889
83.9456
83.715
83.0153
83.4616
82.6459
83.8421
83.0352
)
;

boundaryField
{
    outletWall
    {
        type            fixedValue;
        value           uniform 0;
    }
    fineWalls
    {
        type            zeroGradient;
    }
    fineFrontAndBack
    {
        type            zeroGradient;
    }
    fineplugLeft
    {
        type            cyclicAMI;
        value           nonuniform List<scalar> 
20
(
75.802
76.4203
75.7759
77.2699
77.4994
78.893
79.6454
81.03
82.1667
83.6829
85.2411
86.9206
88.9414
98.1635
96.7204
97.2022
98.7203
95.5684
91.1084
88.7725
)
;
    }
    fineplugRight
    {
        type            cyclicAMI;
        value           nonuniform List<scalar> 
20
(
66.181
66.8241
65.9138
67.0472
66.9089
67.8808
68.3192
69.3748
70.2848
71.5467
72.9158
74.4592
76.2037
83.9978
84.2036
84.3771
85.8097
83.5405
80.3203
77.532
)
;
    }
    inletOutletLeft
    {
        type            cyclicAMI;
        value           nonuniform List<scalar> 
20
(
75.802
76.4203
75.7759
77.2699
77.4994
78.893
79.6454
81.03
82.1667
83.6829
85.2411
86.9206
88.9414
98.1635
96.7204
97.2022
98.7203
95.5684
91.1084
88.7725
)
;
    }
    inletLeft
    {
        type            zeroGradient;
    }
    inletWallsLeft
    {
        type            zeroGradient;
    }
    inletFacesLeft
    {
        type            zeroGradient;
    }
    inletOutletRight
    {
        type            cyclicAMI;
        value           nonuniform List<scalar> 
20
(
66.181
66.8241
65.9138
67.0472
66.9089
67.8808
68.3192
69.3748
70.2848
71.5467
72.9158
74.4592
76.2037
83.9978
84.2036
84.3771
85.8097
83.5405
80.3203
77.532
)
;
    }
    inletRight
    {
        type            zeroGradient;
    }
    inletWallsRight
    {
        type            zeroGradient;
    }
    inletFacesRight
    {
        type            zeroGradient;
    }
}


// ************************************************************************* //
