/*--------------------------------*- C++ -*----------------------------------*\
| =========                 |                                                 |
| \\      /  F ield         | OpenFOAM: The Open Source CFD Toolbox           |
|  \\    /   O peration     | Version:  4.1                                   |
|   \\  /    A nd           | Web:      www.OpenFOAM.org                      |
|    \\/     M anipulation  |                                                 |
\*---------------------------------------------------------------------------*/
FoamFile
{
    version     2.0;
    format      ascii;
    class       surfaceScalarField;
    location    "12";
    object      phi;
}
// * * * * * * * * * * * * * * * * * * * * * * * * * * * * * * * * * * * * * //

dimensions      [0 3 -1 0 0 0 0];

internalField   nonuniform List<scalar> 
2360
(
545.905
1562.04
-1016.14
1562.04
1562.04
2855.71
-1293.67
2855.71
2855.71
2855.71
4460.78
-1605.07
4460.78
4460.78
6416.81
-1956.03
6416.81
6416.8
8781.78
-2364.97
8781.78
8781.78
12212.4
-3430.65
12212.4
12212.4
12746.8
14214
15904
17492.9
18889.8
20175.7
16635.6
4768.45
17794.2
18878.2
19891.9
20839.4
21727
22553.3
23320.3
24022.9
24668.6
25256.1
25799.2
26354
26944
12012.8
14931.2
12012.8
12012.8
12012.8
50.3575
11962.4
50.3572
50.3578
50.3572
-171.029
221.387
-171.03
-171.029
-112.161
-58.8693
-112.158
-112.16
-112.157
-12179.9
12067.8
-12179.9
-12179.9
-12179.9
-26843.2
14663.3
-26305.6
-25785.6
-25267.3
-24701.4
-24075.2
-23389
-22635
-21815.2
-20927.1
-19974.5
-18957.5
-17877.3
-16725.2
-20673.3
5189.78
-19334.7
-17889.3
-16367.6
-14773.9
-13239.3
-12533
-12533
-12533
-9371.24
-3161.79
-9371.24
-9371.24
-7314.19
-2057.04
-7314.2
-7314.2
-5663.66
-1650.54
-5663.66
-5663.66
-4364.38
-1299.28
-4364.38
-4364.38
-4364.38
-3422.15
-942.231
-3422.15
-3422.15
-2731.96
-690.185
-2628.86
-1022.69
-2527.45
-1746.55
-2491.52
-2655.77
-2261.49
1540
-2254.62
3976.18
-2282.71
3086.36
-2193.9
1928.4
-1945.81
1135.32
-1539.79
640.254
-1034.07
567.226
-537.183
658.2
-156.02
2193.85
142.551
3098.7
469.45
2278.8
683.226
2284.02
808.363
2986.36
890.418
2655.87
979.896
4148.22
4355.95
-3390.51
-1448.17
-3082.94
-2054.12
-2878.27
-2860.44
-2469.22
1130.95
-2440.79
3947.75
-2546.17
3191.74
-2493.56
1875.79
-2204.88
846.646
-1697.3
132.676
-1048.96
-81.115
-436.055
45.2927
-114.507
1872.3
107.698
2876.49
528.757
1857.74
746.673
2066.1
804.988
2928.04
888.284
2572.57
997.022
4039.48
4410.74
-4414.24
-1902.51
-3817.32
-2651.04
-3268.55
-3409.21
-2805.44
667.84
-2803.88
3946.19
-3018.1
3405.97
-3121.55
1979.24
-2884.32
609.419
-2280.98
-470.669
-1346.39
-1015.71
-411.462
-889.631
-70.9814
1531.82
32.6958
2772.82
545.27
1345.17
831.084
1780.29
860.22
2898.91
948.526
2484.26
1059.36
3928.64
4170.82
-5661.58
-2520.91
-4739.71
-3572.91
-3926.42
-4222.5
-3381.65
123.07
-3454.16
4018.7
-3815.45
3767.25
-4087.51
2251.29
-3842.11
364.022
-2946.18
-1366.59
-1481.66
-2480.23
-158.803
-2212.49
196.563
1176.46
99.5317
2869.85
542.565
902.136
781.543
1541.31
741.417
2939.03
842.668
2383.01
1106.02
3665.29
3626.31
-7098.65
-3340.63
-5955.97
-4715.6
-4967.78
-5210.68
-4149.55
-695.157
-4244.9
4114.05
-4784.65
4307
-4941.99
2408.63
-4292.98
-284.986
-3027.36
-2632.21
-1581.76
-3925.83
-560.299
-3233.95
-175.144
791.301
-61.8245
2756.53
457.837
382.475
561.794
1437.35
478.97
3021.86
749.378
2112.6
1202.43
3212.24
2771.69
-8630.44
-4377.77
-7277.78
-6068.25
-6156.4
-6332.06
-4902.18
-1949.38
-4650.07
3861.94
-5167.86
4824.79
-5284.44
2525.21
-4951.17
-618.263
-4611.12
-2972.25
-4217.85
-4319.11
-3481.5
-3970.3
-2257.6
-432.605
-1303.12
1802.05
-790.566
-130.078
-693.69
1340.47
-607.381
2935.55
-261.759
1766.98
1156.94
1793.54
766.853
-9149.69
-5567.56
-7799.32
-7418.62
-7069.34
-7062.04
-5820.49
-3198.23
-4855.25
2896.69
-5055.6
5025.14
-5975.84
3445.45
-7427.36
833.258
-8830.09
-1569.52
-9106.71
-4042.48
-7704.58
-5372.43
-5033.35
-3103.83
-2998.85
-232.451
-2254.36
-874.566
-1479.63
565.741
-558.256
2014.18
511.439
697.287
1549.4
755.581
7506.04
-7609.65
-6413.86
-7185.66
-7842.61
-7667.42
-6580.27
-7276.94
-3588.7
-6091.9
1711.66
-5999.27
4932.5
-7771.14
5217.32
-10603.4
3665.56
-12783.1
610.119
-13311.1
-3514.48
-12251.1
-6432.46
-9836.26
-5518.63
-7599.89
-2468.82
-6352.55
-2121.9
-4413.63
-1373.19
-3114.93
715.487
-4503.75
2086.1
-8661.79
4913.63
13507.6
-5859.1
-6440.81
-6745.87
-6955.85
-8329.23
-4996.91
-9181.86
-2736.07
-8859.24
1389.03
-8955.34
5028.61
-10634.3
6896.32
-13145.5
6176.71
-14931.7
2396.32
-15642.4
-2803.74
-15823.1
-6251.75
-15510.8
-5830.95
-14938
-3041.61
-14706
-2353.91
-14449.1
-1630.1
-14215.3
481.7
-14616.3
2487.09
-14844.9
5142.22
10730.4
-5482.15
-5804.91
-7177.61
-5260.38
-9208.83
-2965.7
-10825.7
-1119.23
-11488.3
2051.63
-11994.1
5534.42
-13021.9
7924.15
-14189.4
7344.2
-14773.2
2980.11
-15036.4
-2540.5
-15402.5
-5885.7
-15603.2
-5630.23
-15658.3
-2986.5
-16042.2
-1970.03
-16430.3
-1242.01
-16201.1
252.573
-14828.6
1114.57
-10527.1
840.725
144.406
-5900.54
-4841.55
-7932.98
-3227.94
-10040.7
-858.002
-11874.9
714.997
-13035.5
3212.27
-13779.2
6278.08
-14185.6
8330.59
-14012.4
7170.93
-13281.4
2249.1
-12924.3
-2897.53
-13524.9
-5285.14
-14694.2
-4460.92
-15574.4
-2106.24
-15997.1
-1547.36
-16087.3
-1151.81
-15575.4
-259.395
-14110.5
-350.289
-9920.34
-3349.42
-9554.55
-6369.26
-3819.49
-8350.55
-1246.65
-10265.3
1056.78
-12053.6
2503.22
-13397.6
4556.32
-14095
6975.44
-13808.2
8043.78
-12359.4
5722.13
-10500.8
390.52
-9368.1
-4030.21
-9047.38
-5605.86
-10166.6
-3341.66
-12286
13.1019
-13850.8
17.5065
-15089.2
86.5299
-15907.4
558.784
-16100.2
-157.469
-15393.2
-4056.43
-12985.3
-6606.59
-2937.44
-8289.78
436.534
-9935.94
2702.95
-11577.8
4145.07
-12853
5831.56
-13297.2
7419.55
-12513.7
7260.28
-10717.1
3925.55
-9077.2
-1249.36
-7745.81
-5361.6
-5485.13
-7866.54
-2658.34
-6168.45
-1330.09
-1315.15
-1832.68
520.1
-3576.15
1830
-5250.23
2232.86
-6457.23
1049.53
-9497.58
-1016.09
-7551.7
-6461.59
-2349.98
-7748.08
1723.02
-9175.1
4129.96
-10616.1
5586.11
-11672.7
6888.12
-11814.3
7561.21
-10732.4
6178.33
-8861.92
2055.08
-7312.26
-2799.02
-6060.55
-6613.32
-4355.49
-9571.59
-2200.26
-8323.68
-261.218
-3254.19
734.686
-475.803
1170.88
1393.81
1484.74
1919.01
2179.03
355.238
2643.72
-1480.78
-139.529
-6043.45
-2099.87
-6902.58
2582.15
-8103.14
5330.53
-9298.44
6781.4
-10081.6
7671.3
-9891.85
7371.44
-8379.81
4666.3
-6085.4
-239.329
-4271.88
-4612.54
-3143.14
-7742.05
-2325.12
-10389.6
-1291
-9357.8
256.13
-4801.32
1001.65
-1221.32
1332.11
1063.34
1932.16
1318.96
1870.39
417.011
2173.33
-1783.72
-1396.85
-5606.68
-2087.56
-6075.97
3051.43
-6953.92
6208.48
-7823.59
7651.07
-8266.17
8113.87
-7654
6759.27
-5536.42
2548.72
-3007.8
-2767.96
-1417.93
-6202.41
-846.6
-8313.38
-941.941
-10294.3
-594.88
-9704.86
625.022
-6021.22
1484.86
-2081.17
1807.48
740.727
2147.41
979.027
2292.65
271.769
2135.49
-1626.56
-1626.33
-5191.04
-2207.96
-5383.76
3244.15
-5936.95
6761.67
-6433.81
8147.93
-6468.76
8148.82
-5411.97
5702.48
-3059.25
195.992
-1102.15
-4725.06
-210.471
-7094.08
-56.9502
-8466.9
-362.613
-9988.62
-122.451
-9945.02
831.646
-6975.32
1631.02
-2880.54
2074.8
296.949
2298.99
754.831
2264.92
305.843
2008.77
-1370.42
-1573.58
-4763.06
-2401.13
-4778.46
3259.56
-5087.47
7070.68
-5270.51
8330.96
-4935.11
7813.42
-3578.78
4346.16
-1640.57
-1742.22
-645.31
-5720.32
-342.478
-7396.91
-249.647
-8559.73
-197.21
-10041.1
222.032
-10364.3
942.175
-7695.46
1602.71
-3541.07
2041.85
-142.186
2293.75
502.923
2294.13
305.471
1903.25
-979.537
-1275.4
-4340.34
-2643.19
-4252.71
3171.92
-4428.11
7246.08
-4448.83
8351.68
-3884.03
7248.63
-2439.19
2901.32
-1150.06
-3031.35
-758.562
-6111.81
-566.343
-7589.13
-315.007
-8811.07
20.6592
-10376.7
469.028
-10812.6
957.398
-8183.83
1423.96
-4007.64
1742.48
-460.698
1921.99
323.411
1904.55
322.911
1633.83
-708.817
-935.24
-4000.75
-3754.79
-3740.42
-3614.37
-3018.79
-1923.88
-1147.45
-840.931
-537.392
-178.245
204.881
575.708
911.412
1217.35
1424.49
1565.18
1613.15
1495.62
153.241
-687.572
454.763
-1768.74
684.31
-1919.59
808.495
-1713.09
909.919
-1498.32
1018.26
-1394.25
1100.95
-1311.05
1158.08
-1215.72
1182.88
-1108.79
1176.51
-1007.35
1143.03
-913.988
1087.04
-831.599
1010.28
-749.493
914.783
-671.493
800.997
-588.897
673.183
-517.825
534.195
-448.571
387.211
-396.088
230.451
-398.034
-359.506
370.332
-1057.9
551.279
-1949.68
534.404
-1902.71
433.872
-1612.56
435.671
-1500.12
496.126
-1454.7
578.474
-1393.39
645.625
-1282.87
685.533
-1148.7
694.616
-1016.43
678.33
-897.701
642.851
-796.119
593.54
-700.18
532.774
-610.727
464.308
-520.429
390.662
-444.178
318.521
-376.429
246.083
-323.648
149.759
-301.709
-209.748
375.565
-1433.47
497.505
-2071.62
436.153
-1841.36
345.54
-1521.95
420.16
-1574.74
520.516
-1555.06
572.359
-1445.23
596.172
-1306.69
585.375
-1137.9
544.335
-975.39
486.047
-839.412
418.843
-728.914
346.972
-628.307
271.874
-535.628
198.193
-446.748
128.332
-374.316
68.8576
-316.954
27.7777
-282.568
0.421786
-274.351
-209.326
211.246
-1644.71
180.87
-2041.24
119.427
-1779.91
51.7179
-1454.24
79.8598
-1602.88
109.372
-1584.57
37.5691
-1373.43
-42.5817
-1226.53
-155.902
-1024.58
-282.319
-848.972
-405.615
-716.116
-519.53
-614.998
-622.199
-525.637
-709.619
-448.208
-772.367
-383.998
-796.32
-350.362
-751.015
-362.258
-587.465
-446.117
-292.16
-569.655
-501.486
29.4114
-1674.12
-40.477
-1971.35
-41.6226
-1778.76
-83.0674
-1412.79
-141.366
-1544.58
-163.204
-1562.73
-304.563
-1232.07
-414.508
-1116.59
-539.022
-900.063
-659.027
-728.965
-782.608
-592.533
-911.727
-485.878
-1043.82
-393.542
-1161.32
-330.708
-1237.75
-307.572
-1231.69
-356.411
-1085.86
-508.088
-760.678
-771.302
-322.653
-1007.68
-824.138
-8.55608
-1665.56
-24.7732
-1955.13
13.5165
-1817.05
6.16294
-1405.43
-47.4813
-1490.93
-35.3167
-1574.9
-122.015
-1145.37
-153.994
-1084.61
-158.211
-895.845
-123.57
-763.604
-88.6874
-627.415
-71.0011
-503.563
-91.1129
-373.429
-146.6
-275.22
-224.162
-230.009
-286.939
-293.634
-295.944
-499.082
-233.98
-833.266
-145.429
-1096.23
-969.567
-9.99797
-1655.56
-14.4927
-1950.64
8.27353
-1839.82
13.8039
-1410.96
-2.9143
-1474.21
5.32397
-1583.13
-17.6993
-1122.35
-0.764067
-1101.54
72.2931
-968.902
199.296
-890.606
350.655
-778.773
512.764
-665.67
661.444
-522.109
770.398
-384.174
806.183
-265.792
743.538
-230.989
570.511
-326.054
322.039
-584.794
84.948
-859.138
-884.619
-19.3715
-1636.19
-20.0359
-1949.97
-6.42213
-1853.43
1.26626
-1418.65
-15.6475
-1457.3
-38.7181
-1560.06
-34.7909
-1126.27
-35.8943
-1100.44
4.44986
-1009.25
62.5684
-948.725
138.387
-854.592
232.175
-759.458
349.659
-639.593
476.844
-511.36
583.613
-372.561
623.665
-271.04
552.688
-255.078
382.832
-414.938
188.885
-665.191
-695.734
-9.9168
-1626.27
3.25331
-1963.14
12.8618
-1863.03
39.547
-1445.33
28.7422
-1446.49
2.2155
-1533.53
34.7592
-1158.81
29.4278
-1095.11
40.1716
-1019.99
43.1988
-951.75
52.4702
-863.861
62.9908
-769.977
89.0466
-665.647
130.928
-553.239
189.844
-431.476
250.905
-332.1
288.254
-292.426
273.581
-400.264
177.332
-568.941
-518.402
20.6416
-1646.91
38.8143
-1981.31
34.4007
-1858.62
85.449
-1496.38
95.3716
-1456.41
56.8082
-1494.97
112.932
-1214.94
130.914
-1113.09
153.02
-1042.09
164.069
-962.798
181.063
-880.855
196.62
-785.533
218.884
-687.91
247.547
-581.902
287.938
-471.867
335.487
-379.649
378.683
-335.622
362.872
-384.454
219.411
-425.481
-298.991
73.9931
-1720.9
89.6276
-1996.94
66.7999
-1835.79
142.185
-1571.76
187.133
-1501.36
139.473
-1447.31
203.507
-1278.97
246.779
-1156.36
289.814
-1085.13
321.58
-994.564
355.468
-914.743
390.183
-820.247
430.65
-728.378
477.598
-628.849
533.732
-528.001
588.614
-434.531
609.821
-356.83
522.428
-297.061
289.712
-192.766
-9.27923
120.589
-1841.49
109.629
-1985.98
102.172
-1828.33
185.8
-1655.39
254.62
-1570.18
246.437
-1439.12
302.433
-1334.97
366.905
-1220.83
429.94
-1148.16
487.698
-1052.32
540.359
-967.404
590.539
-870.428
637.671
-775.512
680.457
-671.635
714.262
-561.807
722.118
-442.389
673.734
-308.446
518.31
-141.638
280.029
45.5121
270.75
119.108
-1960.6
74.6842
-1941.56
94.1129
-1847.76
130.299
-1691.58
175.645
-1615.53
217.52
-1481
274.226
-1391.67
345.135
-1291.74
417.282
-1220.31
488.366
-1123.41
546.889
-1025.93
586.624
-910.163
600.577
-789.465
597.752
-668.81
582.482
-546.538
536.978
-396.885
441.454
-212.923
276.45
23.3652
81.9998
239.962
352.75
33.363
-1993.96
-33.7535
-1874.45
-54.3397
-1827.18
-84.6711
-1661.25
-97.6162
-1602.58
-101.81
-1476.81
-95.3202
-1398.16
-87.5384
-1299.52
-81.8546
-1226
-76.851
-1128.41
-90.8112
-1011.97
-136.56
-864.415
-208.21
-717.816
-278.866
-598.154
-342.73
-482.674
-413.753
-325.863
-509.045
-117.632
-553.562
67.8807
-384.116
70.5136
-31.366
-33.7776
-1960.19
-97.5785
-1810.65
-146.804
-1777.95
-212.001
-1596.05
-275.04
-1539.55
-350.578
-1401.27
-423.337
-1325.41
-502.16
-1220.7
-591.337
-1136.82
-680.016
-1039.73
-762.264
-929.722
-826.765
-799.916
-867.86
-676.723
-888.551
-577.465
-892.575
-478.65
-864.77
-353.668
-773.776
-208.626
-571.555
-134.342
-269.145
-231.899
-300.511
16.2359
-1976.43
14.1301
-1808.54
19.8889
-1783.72
17.7281
-1593.89
15.8829
-1537.7
12.9414
-1398.33
2.13546
-1314.61
-11.8106
-1206.76
-32.5617
-1116.07
-51.0201
-1021.28
-50.6306
-930.116
-13.6865
-836.865
51.4104
-741.825
115.388
-641.449
169.159
-532.426
226.23
-410.746
305.25
-287.65
368.887
-197.984
273.059
-136.075
-27.4519
13.7332
-1990.16
3.39496
-1798.21
8.97938
-1789.3
30.8853
-1615.8
50.5494
-1557.37
90.567
-1438.35
132.594
-1356.63
187.889
-1262.06
249.667
-1177.85
321.823
-1093.44
403.885
-1012.18
497.267
-930.249
599.196
-843.756
702.464
-744.718
792.241
-622.205
840.506
-459.013
805.349
-252.495
585.158
22.2056
308.646
140.434
281.194
-129.902
-1860.26
-282.058
-1646.05
-400.137
-1671.22
-473.752
-1542.19
-537.48
-1493.64
-566.613
-1409.22
-579.969
-1343.28
-570.162
-1271.86
-542.903
-1205.11
-498.046
-1138.3
-438.083
-1072.14
-364.382
-1003.95
-277.726
-930.413
-178.86
-843.585
-72.9865
-728.08
26.6612
-558.662
95.05
-320.888
120.992
-3.7413
42.1404
219.283
323.335
-208.999
-1651.26
-460.311
-1394.74
-724.322
-1407.21
-944.563
-1321.95
-1155.09
-1283.12
-1331.58
-1232.73
-1484.38
-1190.48
-1608.65
-1147.59
-1707.51
-1106.25
-1780.86
-1064.94
-1829.4
-1023.61
-1851.85
-981.502
-1844.91
-937.352
-1801.06
-887.437
-1705.75
-823.391
-1532.08
-732.332
-1253.7
-599.271
-841.821
-415.62
-406.569
-215.97
-83.2344
-676.263
-1096
-1528.22
-1875.16
-2183.28
-2441.01
-2656.5
-2829.08
-2960.34
-3050.28
-3098.89
-3105.39
-3067.74
-2980.18
-2828.57
-2585.9
-2210.18
-1650.8
-891.766
-678.854
1653.85
-1099.87
1396.01
-1533.31
1408.44
-1880.59
1322.28
-2188.44
1282.84
-2445.14
1231.7
-2658.95
1188.81
-2829.37
1145.42
-2958.19
1103.82
-3045.62
1062.43
-3091.57
1020.94
-3094.77
978.196
-3053.11
933.337
-2963.37
885.261
-2817.72
829.354
-2594.38
751.655
-2244.63
625.245
-1696.15
426.527
-917.324
196.167
57.6764
-194.858
1848.7
-428.983
1630.13
-676.292
1655.74
-876.729
1522.71
-1066.63
1472.74
-1220.01
1385.07
-1347.74
1316.53
-1444.31
1241.99
-1513.03
1172.54
-1554.14
1103.54
-1569.49
1036.28
-1560.23
968.939
-1526.94
900.041
-1467.59
825.915
-1374.93
736.689
-1233.03
609.749
-1018.11
410.326
-716.721
125.134
-378.84
-141.719
-321.163
-113.894
1962.59
-251.061
1767.29
-353.339
1758.02
-412.573
1581.95
-461.009
1521.18
-474.644
1398.7
-472.287
1314.17
-446.598
1216.3
-403.595
1129.53
-341.44
1041.38
-259.749
954.589
-154.618
863.801
-27.0158
772.433
115.433
683.46
260.161
591.955
384.857
485.048
447.229
347.95
394.092
178.266
208.923
43.442
-112.24
2.09164
1960.5
-25.521
1794.9
-33.4329
1765.93
-38.4514
1586.96
-43.5403
1526.26
-41.0854
1396.25
-42.334
1315.41
-42.5779
1216.54
-44.9933
1131.94
-38.6797
1035.06
-2.62676
918.531
84.5051
776.664
219.782
637.151
385.009
518.228
569.058
407.902
743.291
310.812
828.162
263.076
723.365
283.06
421.846
344.957
309.605
-49.3893
2009.89
-119.221
1864.73
-181.155
1827.86
-260.647
1666.45
-342.205
1607.82
-438.659
1492.7
-545.818
1422.57
-661.425
1332.14
-785.691
1256.2
-908.239
1157.6
-1008.42
1018.71
-1070.32
838.563
-1096.77
663.598
-1061.12
482.569
-949.593
296.37
-767.928
129.142
-520.552
15.6947
-265.833
28.3351
-70.4862
149.601
239.119
-53.5474
2063.44
-150.826
1962.01
-227.937
1904.97
-312.412
1750.93
-391.458
1686.86
-467.371
1568.61
-542.864
1498.06
-622.44
1411.72
-709.042
1342.81
-797.587
1246.15
-905.097
1126.22
-1018.71
952.183
-1103.44
748.32
-1200.84
579.966
-1410.05
505.578
-1503.35
222.438
-1465.33
-22.3222
-1186.25
-250.749
-682.82
-353.836
-443.701
91.7289
1971.71
49.4404
2004.3
64.6457
1889.77
89.158
1726.42
122.335
1653.69
170.058
1520.9
234.342
1433.78
312.086
1333.99
392.988
1261.91
475.718
1163.43
538.404
1063.54
562.167
928.422
572.535
737.952
548.03
604.471
400.937
652.666
222.044
401.313
64.2104
135.488
-66.4759
-120.082
-186.178
-234.146
-629.879
178.623
1793.09
164.539
2018.4
206.693
1847.62
259.3
1673.82
324.218
1588.77
395.665
1449.46
476.833
1352.62
565.406
1245.42
656.348
1170.97
739.218
1080.57
809.681
993.081
847.84
890.272
861.91
723.881
923.96
542.423
1093.98
482.645
1079.52
415.774
920.278
294.725
604.196
195.996
290.423
79.6197
-339.456
175.573
1617.52
172.837
2021.14
198.07
1822.38
237.672
1634.22
289.469
1536.98
338.658
1400.27
388.826
1302.45
443.219
1191.03
507.197
1106.99
571.274
1016.5
638.329
926.026
698.176
830.425
722.775
699.28
742.724
522.474
813.278
412.089
832.858
396.193
749.843
377.737
570.812
375.024
365.605
284.821
26.1496
153.238
1464.28
161.987
2012.39
172.129
1812.24
194.562
1611.79
227.614
1503.93
254.369
1373.52
280.297
1276.52
305.942
1165.39
340.893
1072.04
380.442
976.95
426.357
880.111
472.544
784.241
499.629
672.195
499.075
523.03
498.776
412.387
506.028
388.942
489.206
394.558
421.306
442.924
261.162
444.963
287.311
122.972
1341.31
135.629
1999.74
131.509
1816.37
137.387
1605.92
156.411
1484.9
169.363
1360.57
180.759
1265.13
189.924
1156.23
204.949
1057.02
225.711
956.189
251.356
854.467
276.658
758.941
288.381
660.472
264.816
546.595
233.938
443.266
234.259
388.621
261.007
367.809
265.212
438.719
170.668
539.507
457.979
91.4846
1249.83
109.848
1981.38
105.848
1820.37
106.579
1605.19
120.97
1470.52
133.334
1348.21
144.909
1253.56
153.127
1148.01
163.812
1046.34
176.648
943.358
186.77
844.347
189.1
756.614
173.798
675.777
130.709
589.687
88.7385
485.239
82.3121
395.049
111.721
338.401
140.304
410.138
102.219
577.593
560.198
51.5898
1198.25
73.3302
1959.64
89.425
1804.28
96.9251
1597.69
115.682
1451.76
140.324
1323.57
167.743
1226.14
187.82
1127.94
200.394
1033.77
203.726
940.028
194.572
853.503
176.951
774.237
157.617
695.113
144.57
602.735
148.216
481.594
170.866
372.401
187.331
321.937
167.976
429.494
105.985
639.585
666.183
-8.74619
1207
-0.246771
1951.14
28.7492
1775.29
39.0371
1587.41
55.5204
1435.28
77.6836
1301.4
116.328
1187.5
153.999
1090.27
184.936
1002.83
209.788
915.179
235.477
827.817
276.609
733.108
345.806
625.917
440.913
507.63
534.872
387.637
587.114
320.16
547.096
361.956
393.766
582.825
189.573
843.78
855.756
-57.7925
1264.79
-56.984
1950.34
-19.7369
1738.04
-9.65211
1577.32
-18.2026
1443.83
-32.1303
1315.33
-15.5339
1170.9
25.4074
1049.33
87.7459
940.495
170.442
832.485
276.655
721.606
404.76
605.005
543.664
487.015
669.708
381.589
746.095
311.252
739.739
326.517
622.039
479.657
401.618
803.248
141.242
1104.16
996.998
-90.418
1355.21
-92.1954
1952.12
-46.2185
1692.07
-48.3987
1579.51
-101.137
1496.57
-171.323
1385.52
-221.628
1221.21
-238.697
1066.4
-218.769
920.569
-170.84
784.559
-106.709
657.477
-45.2757
543.574
-3.29215
445.033
8.60392
369.695
-10.6553
330.513
-45.898
361.761
-76.5993
510.359
-80.7649
807.414
-77.2999
1100.69
919.698
-37.644
1392.86
-53.531
1968.01
-28.9224
1667.46
-41.0756
1591.66
-105.021
1560.52
-189.551
1470.05
-281.736
1313.4
-369.531
1154.2
-446.486
997.526
-517.634
855.708
-589.457
729.301
-669.225
623.343
-755.918
531.728
-842.981
456.758
-911.469
399.002
-927.436
377.73
-833.968
416.892
-587.422
560.868
-249.494
762.767
670.204
122.347
1270.51
135.071
1955.28
102.083
1700.45
95.9892
1597.75
87.5499
1568.96
80.4268
1477.18
54.8051
1339.02
2.71295
1206.29
-75.5355
1075.78
-175.004
955.177
-286.854
841.152
-402.726
739.217
-513.392
642.393
-614.185
557.552
-693.468
478.286
-735.215
419.477
-694.397
376.074
-516.179
382.65
-214.822
461.41
455.383
314.295
956.219
420.837
1848.74
353.039
1768.25
303.789
1647
299.495
1573.25
323.44
1453.23
355.462
1307
370.923
1190.83
357.36
1089.34
315.197
997.341
251.123
905.226
174.109
816.231
91.3323
725.17
8.04202
640.843
-69.9378
556.265
-136.376
485.916
-177.688
417.385
-166.492
371.452
-86.5314
381.448
368.851
249.944
564.077
738.613
863.975
991.817
1106.41
1171.77
1210.45
1219.56
1199.94
1152.53
1080.68
986.068
872.924
743.012
602.693
454.136
307.314
168.756
)
;

boundaryField
{
    outletWall
    {
        type            calculated;
        value           nonuniform List<scalar> 
60
(
-2731.96
-4066.24
-4237.69
-2737.92
-3111.49
-2497.79
-2605.7
-3397.27
-2575.01
-1155.09
-1072.94
-1046.28
-1383.41
-2017.2
-3058.27
-3983.05
-1770.03
2619.84
1645.14
753.822
4274.35
4582.4
4956.23
5311.44
5594.38
5793.34
5874.13
5724.54
5347.21
4937.18
4846.24
5886.05
8455.95
10339.5
9667.58
7918.37
6279.97
4868.59
3815.99
2897.73
-545.905
-455.763
-591.28
274.937
182.721
-667.832
-4313.58
-8519.53
-11183.5
-10759.8
-9170.21
-7892.67
-6418.33
-3807.78
1806.4
6653.05
8225.62
7231.71
2925.96
-2916.79
)
;
    }
    fineWalls
    {
        type            calculated;
        value           uniform 0;
    }
    fineFrontAndBack
    {
        type            calculated;
        value           nonuniform List<scalar> 
960
(
-4.05383e-13
-3.27984e-13
2.13212e-14
-8.79035e-14
4.61567e-13
5.10977e-14
4.60159e-14
-8.26157e-14
6.35727e-13
1.93894e-13
3.13431e-13
5.15566e-13
-1.36618e-13
-1.81967e-13
-4.04883e-12
-1.20466e-12
-1.27328e-12
-3.30158e-12
-4.99145e-13
-7.42304e-13
-4.2667e-14
-2.40752e-13
-2.94043e-13
-3.46715e-13
-3.79427e-13
-4.95153e-13
-7.02518e-12
-6.28933e-13
-6.45293e-13
-6.61561e-13
-6.88817e-13
-7.22707e-13
-7.5536e-13
-7.96883e-13
-8.45048e-13
-9.19037e-13
-9.70461e-13
-1.09138e-12
-1.19367e-12
-1.10242e-12
-2.00411e-11
-2.22707e-12
-2.10509e-12
-2.0746e-12
-6.52581e-12
-6.31858e-12
-8.02775e-12
2.47519e-12
1.85984e-10
-6.21444e-13
4.61957e-12
4.75703e-11
1.47994e-11
1.8474e-11
1.08692e-11
1.51212e-11
1.56158e-12
1.58005e-12
1.56825e-12
1.59475e-11
9.44854e-13
1.03905e-12
9.29593e-13
7.89302e-13
7.26134e-13
6.50351e-13
5.93452e-13
5.45292e-13
4.94128e-13
4.52695e-13
4.19093e-13
3.93908e-13
3.67946e-13
-1.22802e-12
1.56222e-13
2.47016e-14
-2.36456e-14
-1.20203e-13
-2.28127e-13
-4.31913e-13
-2.07945e-12
-2.34936e-12
-1.36762e-11
-2.2878e-12
-2.52985e-12
-1.37577e-11
-1.92712e-12
-2.20129e-12
-1.15756e-11
-1.52953e-12
-1.66948e-12
-7.75468e-12
-6.34723e-13
-6.77572e-13
-6.59166e-13
-3.71292e-12
-2.45832e-13
-2.9894e-13
-1.68305e-12
1.24495e-13
8.88781e-11
-1.03094e-10
-6.18126e-11
-6.79605e-11
-7.85814e-11
-7.9479e-11
-7.16661e-11
-6.16548e-11
-4.93624e-11
-4.08327e-11
-3.71333e-11
-4.34391e-11
-5.16453e-11
-5.16379e-11
-4.88056e-11
-4.40145e-11
-3.92426e-11
-2.96474e-11
-1.98582e-11
1.54201e-10
-9.3891e-11
-5.17831e-11
-5.12819e-11
-7.85213e-11
-8.01364e-11
-6.6607e-11
-5.05572e-11
-3.43839e-11
-2.97416e-11
-3.19026e-11
-4.01108e-11
-4.9249e-11
-4.85038e-11
-4.82484e-11
-4.47927e-11
-4.06234e-11
-3.08707e-11
-2.08272e-11
8.3653e-11
-8.49467e-11
-3.30289e-11
-3.31424e-11
-6.6877e-11
-7.44501e-11
-5.35077e-11
-2.71307e-11
-1.40293e-11
-2.06591e-11
-2.39518e-11
-2.21687e-11
-3.99313e-11
-4.48742e-11
-4.86467e-11
-4.37888e-11
-3.89634e-11
-3.12956e-11
-2.21221e-11
3.31936e-11
-5.32114e-11
-1.5234e-11
-1.91349e-11
-4.03467e-11
-4.59148e-11
-2.12425e-11
-1.18012e-11
-3.89666e-11
-6.10098e-11
-4.49162e-11
-2.10972e-11
-2.23333e-11
-3.42119e-11
-4.11931e-11
-4.10975e-11
-3.70383e-11
-3.05088e-11
-2.2696e-11
1.88811e-11
-1.8434e-11
-1.79675e-11
-2.09722e-11
-1.25652e-11
-1.23492e-11
-1.535e-11
-5.6388e-11
-1.0582e-10
-9.6242e-11
-5.2475e-11
-9.82228e-12
-5.55783e-12
-1.58408e-11
-2.36204e-11
-3.50248e-11
-3.06002e-11
-2.76647e-11
-2.07978e-11
8.08389e-12
-1.83394e-11
-3.88024e-11
-3.96949e-11
-1.15202e-11
-1.04014e-11
-5.05627e-11
-1.08747e-10
-1.08857e-10
-5.97282e-11
-2.45095e-11
-1.29793e-12
4.49974e-12
-1.57968e-11
-3.89305e-11
-4.47848e-11
-3.8845e-11
-2.59906e-11
-2.23809e-11
-3.57765e-11
-4.01663e-11
-4.43789e-11
-5.40149e-11
-4.93138e-11
-4.83643e-11
-8.65243e-11
-9.97682e-11
-5.16148e-11
-1.82468e-11
-1.45671e-11
-1.45606e-11
-1.6631e-11
-3.50402e-11
-3.7678e-11
-3.41799e-11
-3.38874e-11
-3.33503e-11
-2.89865e-11
-6.48388e-11
-2.82506e-11
-1.67453e-11
-4.6105e-11
-7.91097e-11
-8.58395e-11
-9.14441e-11
-6.12534e-11
-1.69387e-11
-7.75641e-12
-1.02554e-11
-1.19305e-11
-1.27123e-11
-6.08757e-12
-7.30159e-12
-1.7176e-11
-1.86508e-11
-1.09534e-11
3.51031e-12
-6.24992e-11
1.41514e-12
2.51967e-11
-1.88183e-11
-6.68962e-11
-7.78335e-11
-6.59359e-11
-3.324e-11
-1.03151e-11
-9.06822e-12
-6.73615e-12
-5.38908e-13
2.92221e-12
3.46817e-12
2.10208e-12
8.3152e-13
2.49217e-12
7.89346e-12
1.51383e-11
-5.50575e-11
2.76205e-11
7.04006e-11
2.18984e-11
-2.51431e-11
-3.79368e-11
-3.07342e-11
-1.5698e-11
-9.38957e-12
-1.00947e-11
-7.6626e-12
-4.33025e-12
4.86953e-12
8.53623e-12
1.10539e-11
1.42408e-11
1.49323e-11
2.01259e-11
3.35781e-11
-3.64138e-11
5.12516e-11
1.10768e-10
6.81869e-11
2.57012e-11
4.97293e-12
-1.39352e-12
-1.44571e-12
-1.30856e-12
7.4551e-13
-1.3176e-12
-5.62895e-12
-5.02054e-12
2.59585e-12
1.02911e-11
1.58105e-11
2.02421e-11
3.25506e-11
8.89665e-11
-2.65231e-12
5.34617e-11
1.18438e-10
8.74261e-11
5.21597e-11
3.08933e-11
1.81331e-11
1.06032e-11
8.0297e-12
6.1917e-12
3.01553e-12
-8.87502e-13
-1.36836e-11
-2.18314e-11
-2.39225e-11
-2.57129e-11
-2.63316e-11
-2.72792e-11
-2.41025e-11
4.63144e-11
3.37631e-11
9.4401e-11
7.86671e-11
5.23971e-11
3.55054e-11
2.47112e-11
1.66294e-11
5.70702e-12
-6.8979e-12
-1.16173e-11
3.71117e-12
1.97182e-11
-4.51812e-12
-2.23656e-11
-1.58758e-11
-1.38177e-11
-1.50728e-11
-2.10013e-11
9.59606e-11
1.15859e-11
6.22498e-11
6.30178e-11
4.49703e-11
3.18903e-11
2.4688e-11
1.77018e-11
3.02696e-12
-1.48913e-11
-2.76012e-11
-1.53812e-11
2.49427e-12
1.72955e-11
-1.64678e-12
-8.20278e-12
-9.41773e-12
-2.06676e-12
8.31577e-12
1.2708e-10
2.50231e-12
2.95544e-11
4.46181e-11
3.72158e-11
2.89928e-11
2.0962e-11
1.07119e-11
-3.52696e-12
-1.97966e-11
-3.11597e-11
-1.5544e-11
-1.10943e-11
-9.23398e-12
8.73892e-12
1.43015e-11
2.2723e-11
1.61735e-11
1.89228e-11
1.36954e-10
3.78286e-12
4.66836e-12
2.22989e-11
2.81931e-11
2.3585e-11
9.2173e-12
-1.47667e-11
-2.83955e-11
-3.20021e-11
-2.88475e-11
-9.41491e-12
-6.53739e-12
-5.85817e-12
-4.60842e-12
8.03404e-12
1.29263e-11
7.14621e-12
5.81052e-12
1.43672e-10
1.12344e-12
-1.25062e-11
1.00405e-12
1.62293e-11
1.43388e-11
-7.68558e-12
-3.71001e-11
-4.05051e-11
-3.15436e-11
-1.85387e-11
-4.444e-12
-4.75181e-12
-3.34866e-12
-3.00082e-12
-9.08345e-13
1.10758e-12
2.39154e-12
4.03892e-12
1.59038e-10
8.03263e-13
-2.11541e-11
-1.35827e-11
2.45281e-12
2.11549e-12
-1.96366e-11
-3.23923e-11
-2.41288e-11
-1.8537e-11
-9.08427e-12
-1.9441e-12
-3.72569e-12
-3.40983e-12
-2.9736e-12
-1.85313e-12
-5.24238e-15
2.25721e-12
3.93544e-12
1.77706e-10
8.28342e-12
-2.02434e-11
-1.96289e-11
-1.07664e-11
-1.25897e-11
-2.60785e-11
-2.07574e-11
-1.15456e-11
-1.07158e-11
-6.47803e-12
-9.0991e-13
-2.83377e-12
-3.13316e-12
-2.53729e-12
-1.16941e-12
6.8886e-13
2.51663e-12
4.08867e-12
1.87043e-10
3.37045e-12
-1.20292e-11
-1.37491e-11
-1.69162e-11
-2.13215e-11
-2.03733e-11
-1.21843e-11
-7.75328e-12
-9.56757e-12
-5.66761e-12
-5.76323e-13
-2.14546e-12
-3.04539e-12
-2.22515e-12
-7.37025e-13
9.58031e-13
2.58425e-12
4.11624e-12
4.05383e-13
3.27984e-13
-2.13212e-14
8.79035e-14
-4.61567e-13
-5.10977e-14
-4.60159e-14
8.26157e-14
-6.35727e-13
-1.93894e-13
-3.13431e-13
-5.15566e-13
1.36618e-13
1.81967e-13
4.04883e-12
1.20466e-12
1.27328e-12
3.30158e-12
4.99145e-13
7.42304e-13
4.2667e-14
2.40752e-13
2.94043e-13
3.46715e-13
3.79427e-13
4.95153e-13
7.02518e-12
6.28933e-13
6.45293e-13
6.61561e-13
6.88817e-13
7.22707e-13
7.5536e-13
7.96883e-13
8.45048e-13
9.19037e-13
9.70461e-13
1.09138e-12
1.19367e-12
1.10242e-12
2.00411e-11
2.22707e-12
2.10509e-12
2.0746e-12
6.52581e-12
6.31858e-12
8.02775e-12
-2.47519e-12
-1.85984e-10
6.21444e-13
-4.61957e-12
-4.75703e-11
-1.47994e-11
-1.8474e-11
-1.08692e-11
-1.51212e-11
-1.56158e-12
-1.58005e-12
-1.56825e-12
-1.59475e-11
-9.44854e-13
-1.03905e-12
-9.29593e-13
-7.89302e-13
-7.26134e-13
-6.50351e-13
-5.93452e-13
-5.45292e-13
-4.94128e-13
-4.52695e-13
-4.19093e-13
-3.93908e-13
-3.67946e-13
1.22802e-12
-1.56222e-13
-2.47016e-14
2.36456e-14
1.20203e-13
2.28127e-13
4.31913e-13
2.07945e-12
2.34936e-12
1.36762e-11
2.2878e-12
2.52985e-12
1.37577e-11
1.92712e-12
2.20129e-12
1.15756e-11
1.52953e-12
1.66948e-12
7.75468e-12
6.34723e-13
6.77572e-13
6.59166e-13
3.71292e-12
2.45832e-13
2.9894e-13
1.68305e-12
-1.24495e-13
-8.88781e-11
1.03094e-10
6.18126e-11
6.79605e-11
7.85814e-11
7.9479e-11
7.16661e-11
6.16548e-11
4.93624e-11
4.08327e-11
3.71333e-11
4.34391e-11
5.16453e-11
5.16379e-11
4.88056e-11
4.40145e-11
3.92426e-11
2.96474e-11
1.98582e-11
-1.54201e-10
9.3891e-11
5.17831e-11
5.12819e-11
7.85213e-11
8.01364e-11
6.6607e-11
5.05572e-11
3.43839e-11
2.97416e-11
3.19026e-11
4.01108e-11
4.9249e-11
4.85038e-11
4.82484e-11
4.47927e-11
4.06234e-11
3.08707e-11
2.08272e-11
-8.3653e-11
8.49467e-11
3.30289e-11
3.31424e-11
6.6877e-11
7.44501e-11
5.35077e-11
2.71307e-11
1.40293e-11
2.06591e-11
2.39518e-11
2.21687e-11
3.99313e-11
4.48742e-11
4.86467e-11
4.37888e-11
3.89634e-11
3.12956e-11
2.21221e-11
-3.31936e-11
5.32114e-11
1.5234e-11
1.91349e-11
4.03467e-11
4.59148e-11
2.12425e-11
1.18012e-11
3.89666e-11
6.10098e-11
4.49162e-11
2.10972e-11
2.23333e-11
3.42119e-11
4.11931e-11
4.10975e-11
3.70383e-11
3.05088e-11
2.2696e-11
-1.88811e-11
1.8434e-11
1.79675e-11
2.09722e-11
1.25652e-11
1.23492e-11
1.535e-11
5.6388e-11
1.0582e-10
9.6242e-11
5.2475e-11
9.82228e-12
5.55783e-12
1.58408e-11
2.36204e-11
3.50248e-11
3.06002e-11
2.76647e-11
2.07978e-11
-8.08389e-12
1.83394e-11
3.88024e-11
3.96949e-11
1.15202e-11
1.04014e-11