/*--------------------------------*- C++ -*----------------------------------*\
| =========                 |                                                 |
| \\      /  F ield         | OpenFOAM: The Open Source CFD Toolbox           |
|  \\    /   O peration     | Version:  4.1                                   |
|   \\  /    A nd           | Web:      www.OpenFOAM.org                      |
|    \\/     M anipulation  |                                                 |
\*---------------------------------------------------------------------------*/
FoamFile
{
    version     2.0;
    format      ascii;
    class       volVectorField;
    location    "12";
    object      U;
}
// * * * * * * * * * * * * * * * * * * * * * * * * * * * * * * * * * * * * * //

dimensions      [0 1 -1 0 0 0 0];

internalField   nonuniform List<vector> 
1280
(
(-2.9296e-16 0.176006 -0.0113951)
(-5.5744e-17 0.317942 -0.552441)
(1.54083e-17 0.473371 -0.493007)
(-6.35255e-17 0.531481 -0.461838)
(7.84478e-17 0.780104 -0.92634)
(3.69269e-17 0.81466 -0.732916)
(3.32545e-17 0.988984 -0.758123)
(-6.79375e-17 1.02469 -0.719129)
(1.35639e-16 1.39067 -1.22732)
(1.40122e-16 1.41164 -0.953744)
(2.38815e-16 1.58063 -0.854313)
(4.61927e-18 2.02147 -1.54216)
(-9.87304e-17 1.9839 -1.22861)
(-1.50405e-16 2.23995 -1.1039)
(-8.97025e-16 2.73879 -1.93204)
(-8.70574e-16 2.6769 -1.58897)
(-9.20163e-16 3.00838 -1.39824)
(-5.61136e-16 3.68227 -2.82639)
(-3.60719e-16 3.70472 -2.03265)
(-5.36444e-16 3.94004 -2.89793)
(-1.75044e-16 3.94374 -1.23197)
(-9.877e-16 4.16283 4.48375)
(-1.20633e-15 3.93456 8.34779)
(-1.42242e-15 4.13765 10.2563)
(-1.55663e-15 4.26015 10.735)
(-2.0314e-15 4.71651 11.2908)
(-1.48093e-15 3.83231 8.77686)
(-2.58024e-15 8.24786 14.2441)
(-2.64736e-15 8.36029 14.3222)
(-2.7141e-15 8.37679 14.2976)
(-2.82592e-15 8.40616 14.2337)
(-2.96495e-15 8.37942 14.1737)
(-3.09891e-15 8.37746 14.0725)
(-3.26926e-15 8.29739 13.9596)
(-3.46686e-15 8.2859 13.7861)
(-3.77041e-15 8.14119 13.6269)
(-3.98138e-15 8.15058 13.4417)
(-4.47747e-15 7.92121 13.2695)
(-4.89712e-15 7.96115 13.2551)
(-4.52274e-15 7.71664 13.4902)
(-3.48844e-15 9.17698 14.705)
(-1.78881e-15 5.45041 10.062)
(-1.69198e-15 4.20883 9.74886)
(-1.65704e-15 3.22127 9.7502)
(-9.63585e-16 0.991183 7.95507)
(-5.07517e-15 -0.429287 -3.0232)
(-6.44799e-15 0.131385 -4.34117)
(1.98811e-15 0.549663 -4.75379)
(3.30262e-14 1.91381 -4.85669)
(-6.48909e-16 -0.726115 -0.397189)
(3.59058e-15 0.633841 -1.4167)
(8.28029e-15 -1.72956 -5.60765)
(1.18871e-14 -0.64017 -4.77452)
(1.48385e-14 -0.0657933 -4.10801)
(8.73029e-15 0.249301 -1.93134)
(2.63206e-15 -1.02904 8.23033)
(1.26357e-15 -3.26598 9.84145)
(1.26912e-15 -4.26217 9.89292)
(1.25964e-15 -5.52376 10.1887)
(2.67961e-15 -9.30509 14.6584)
(3.87632e-15 -7.69153 13.2684)
(4.26276e-15 -7.96881 13.1876)
(3.81371e-15 -7.92128 13.1996)
(3.23816e-15 -8.16029 13.3929)
(2.97901e-15 -8.15796 13.5895)
(2.66811e-15 -8.3052 13.7764)
(2.43468e-15 -8.32734 13.9866)
(2.2371e-15 -8.41142 14.1605)
(2.02719e-15 -8.42438 14.3242)
(1.85721e-15 -8.45701 14.4282)
(1.71935e-15 -8.43188 14.486)
(1.61603e-15 -8.39624 14.4634)
(1.50952e-15 -8.31718 14.3334)
(-2.58871e-16 -3.93006 8.92919)
(6.40911e-16 -4.79677 11.4094)
(1.0134e-16 -4.47113 10.6852)
(-9.70076e-17 -4.35361 9.6065)
(-4.93141e-16 -4.11694 7.89532)
(-9.35907e-16 -4.33173 5.01815)
(-1.77195e-15 -4.06027 -0.39444)
(-1.50276e-15 -3.74369 -3.078)
(-1.69782e-15 -3.92808 -1.86904)
(-2.3244e-15 -3.74244 -2.69887)
(-1.65334e-15 -3.21916 -1.35431)
(-1.82825e-15 -2.8543 -1.53361)
(-2.38442e-15 -3.08016 -1.85406)
(-1.39268e-15 -2.5293 -1.06917)
(-1.59082e-15 -2.26852 -1.18225)
(-1.94832e-15 -2.45511 -1.45996)
(-1.10535e-15 -1.97434 -0.814775)
(-1.20649e-15 -1.79052 -0.894196)
(-1.413e-15 -1.95446 -1.10077)
(-4.71966e-16 -1.48809 -0.609299)
(-4.89664e-16 -1.51984 -0.623588)
(-4.76362e-16 -1.29926 -0.575293)
(-6.31047e-16 -1.49736 -0.664566)
(-1.77656e-16 -1.13299 -0.282221)
(-2.16036e-16 -1.08856 -0.278337)
(-2.77252e-16 -1.17284 -0.286926)
(8.99692e-17 -0.885466 -0.00583029)
(9.87534e-15 0.253586 2.40692)
(-1.14548e-14 0.555757 1.98491)
(-6.86806e-15 0.87373 2.2235)
(-7.55116e-15 -0.584234 1.93615)
(-8.73127e-15 -1.32277 1.83367)
(-8.831e-15 -1.03093 1.912)
(-7.96289e-15 -0.685539 1.89665)
(-6.85053e-15 -0.472306 1.75644)
(-5.48471e-15 -0.348135 1.49091)
(-4.53697e-15 -0.348145 1.07899)
(-4.12592e-15 -0.375971 0.641736)
(-4.82657e-15 -0.849923 0.258278)
(-5.73837e-15 -1.12149 -0.00360794)
(-5.73755e-15 -0.855371 -0.237565)
(-5.42285e-15 -0.817348 -0.535523)
(-4.8905e-15 -1.02625 -0.606904)
(-4.36029e-15 -0.905531 -0.745962)
(-3.29415e-15 -1.40155 -0.72861)
(-2.20646e-15 -1.37049 -0.918114)
(1.71334e-14 0.428159 3.16631)
(-1.04323e-14 0.606317 2.49988)
(-5.75367e-15 0.897988 2.63671)
(-5.69799e-15 -0.436432 2.17742)
(-8.72459e-15 -1.33377 1.9321)
(-8.90405e-15 -1.02909 2.1096)
(-7.40078e-15 -0.607623 2.14139)
(-5.61747e-15 -0.301016 2.00544)
(-3.82044e-15 -0.0988575 1.6831)
(-3.30462e-15 -0.0503953 1.15259)
(-3.54474e-15 -0.0838241 0.592365)
(-4.45676e-15 -0.633711 0.144204)
(-5.47211e-15 -0.959244 0.0320148)
(-5.38931e-15 -0.682232 -0.220112)
(-5.36093e-15 -0.728174 -0.630863)
(-4.97696e-15 -0.986854 -0.628401)
(-4.51371e-15 -0.881565 -0.726386)
(-3.43008e-15 -1.38894 -0.740043)
(-2.31413e-15 -1.51755 -0.933336)
(9.29477e-15 0.535044 4.03516)
(-9.43853e-15 0.760466 3.34304)
(-3.66988e-15 1.01996 3.02518)
(-3.68248e-15 -0.309541 2.44176)
(-7.43078e-15 -1.30782 2.21908)
(-8.27224e-15 -1.0962 2.42676)
(-5.9453e-15 -0.634942 2.6084)
(-3.01453e-15 -0.242394 2.58425)
(-1.55881e-15 0.0449274 2.24161)
(-2.29546e-15 0.134368 1.56559)
(-2.66132e-15 0.0725635 0.678997)
(-2.46318e-15 -0.600342 0.0239479)
(-4.43681e-15 -0.955107 0.0616199)
(-4.98602e-15 -0.542827 -0.126814)
(-5.40519e-15 -0.636773 -0.726935)
(-4.86542e-15 -0.957719 -0.684466)
(-4.32927e-15 -0.820379 -0.774372)
(-3.47729e-15 -1.27565 -0.778277)
(-2.45802e-15 -1.40749 -1.02293)
(3.68817e-15 0.731979 5.20286)
(-5.91238e-15 1.01024 4.26237)
(-1.69266e-15 1.25679 3.64606)
(-2.1261e-15 -0.138963 2.91491)
(-4.48296e-15 -1.32066 2.71048)
(-5.10164e-15 -1.18069 3.01167)
(-2.36028e-15 -0.693108 3.35296)
(-1.31125e-15 -0.169042 3.45291)
(-4.32962e-15 0.268328 2.97083)
(-6.77886e-15 0.533077 1.93563)
(-4.99069e-15 0.502853 0.544964)
(-2.34413e-15 -0.437338 -0.258609)
(-2.48148e-15 -0.886706 -0.117584)
(-3.80132e-15 -0.361459 -0.071823)
(-4.57701e-15 -0.568005 -0.738082)
(-4.56639e-15 -0.978615 -0.603157)
(-4.11537e-15 -0.850141 -0.672247)
(-3.38987e-15 -1.38255 -0.695085)
(-2.52177e-15 -1.4192 -1.21082)
(2.0979e-15 0.948127 6.56099)
(-2.04822e-15 1.36924 5.30629)
(-1.99639e-15 1.5621 4.63023)
(-2.33024e-15 0.0526356 3.66255)
(-1.39614e-15 -1.35777 3.25069)
(-1.37213e-15 -1.33425 3.78432)
(-1.70556e-15 -0.804611 4.1974)
(-6.26534e-15 -0.0635906 4.03565)
(-1.17578e-14 0.652501 3.13328)
(-1.06936e-14 1.12539 1.89898)
(-5.83056e-15 0.995008 0.770936)
(-1.09136e-15 -0.337337 0.18807)
(-6.17537e-16 -1.04311 0.0148856)
(-1.76009e-15 -0.254448 0.0647672)
(-2.62449e-15 -0.454302 -0.673065)
(-3.89164e-15 -0.993806 -0.33528)
(-3.40002e-15 -0.722294 -0.520657)
(-3.07386e-15 -0.980018 -0.668623)
(-2.31087e-15 -0.920818 -1.44242)
(8.9821e-16 1.27262 8.01201)
(-2.03771e-15 1.77365 6.41762)
(-4.31138e-15 1.91194 5.71545)
(-4.41054e-15 0.403179 4.56137)
(-1.28002e-15 -1.37667 3.61169)
(-1.15571e-15 -1.52866 4.09844)
(-5.61808e-15 -0.784339 4.52067)
(-1.2083e-14 0.270596 4.28679)
(-1.20952e-14 1.10255 3.96631)
(-6.63647e-15 1.49696 3.70389)
(-2.72328e-15 1.18459 3.37433)
(-1.44214e-16 -0.154325 2.45812)
(4.99971e-16 -0.775782 1.18079)
(-1.7552e-15 0.0138462 0.987899)
(-4.32561e-15 -0.466544 0.502079)
(-4.97608e-15 -1.00082 0.581751)
(-4.31611e-15 -0.724062 0.360851)
(-2.88785e-15 -1.33134 0.116692)
(-2.48677e-15 -1.1082 -2.28054)
(-3.97517e-15 1.64992 8.57194)
(-4.46293e-15 2.28145 6.72711)
(-4.93099e-15 2.3123 6.26197)
(-6.00166e-15 0.907924 5.55228)
(-5.47932e-15 -1.19333 4.14486)
(-5.37381e-15 -1.68725 3.91642)
(-9.61381e-15 -0.903521 4.50682)
(-1.10854e-14 0.136545 5.4561)
(-5.73497e-15 0.861141 6.91464)
(-2.02743e-15 1.37098 7.7943)
(-1.61857e-15 1.4429 7.42788)
(-1.61784e-15 0.404236 5.44203)
(-1.84789e-15 -0.466362 2.81046)
(-3.89336e-15 0.0653369 2.25205)
(-4.18645e-15 -0.510435 1.59668)
(-3.79776e-15 -0.993311 0.823825)
(-3.76527e-15 -0.35541 0.00895017)
(-3.70559e-15 0.604665 -0.767505)
(-3.22072e-15 0.902842 -1.85133)
(-7.20431e-15 2.06643 7.007)
(-3.13896e-15 2.66629 5.72082)
(-1.86059e-15 2.39481 6.23473)
(-5.12278e-15 1.24765 6.59406)
(-8.78996e-15 -0.718287 5.52169)
(-9.53772e-15 -1.66029 4.61356)
(-1.01605e-14 -1.41493 5.37094)
(-6.80593e-15 -0.728591 7.57839)
(-1.88208e-15 0.154551 10.091)
(-8.61823e-16 1.30138 11.2133)
(-1.13949e-15 2.13396 10.9991)
(-1.32561e-15 1.71962 9.45061)
(-1.41247e-15 0.702105 6.84088)
(-6.76396e-16 0.62044 5.8758)
(-8.11287e-16 0.31155 4.76817)
(-1.90844e-15 -0.263631 2.58062)
(-2.07231e-15 -0.254952 2.54412)
(-1.21704e-15 -1.34746 4.92915)
(3.90034e-16 -5.85181 9.46239)
(-6.94435e-15 2.21355 4.87517)
(1.57238e-16 2.55562 4.9199)
(2.79964e-15 1.98762 6.30263)
(-2.09093e-15 1.14185 7.63144)
(-7.43291e-15 -0.415531 7.65887)
(-8.64817e-15 -1.61591 7.1002)
(-7.32621e-15 -2.05671 7.80551)
(-3.69334e-15 -1.71306 9.91014)
(-1.14612e-15 -0.54272 12.0064)
(-1.00758e-15 1.0609 12.8905)
(-7.48461e-16 2.14214 13.1842)
(-5.98786e-17 1.90784 13.193)
(3.2469e-16 0.912891 12.6205)
(3.85352e-16 0.739633 12.3005)
(2.33564e-16 0.517954 12.2242)
(9.23911e-17 -0.23469 11.8639)
(2.76907e-16 -0.974505 11.8735)
(8.77051e-16 -1.98705 12.3868)
(1.68203e-15 -3.65344 12.3318)
(-6.1175e-15 2.08055 4.02017)
(3.06895e-15 2.07773 5.12776)
(7.82229e-15 1.3408 6.82127)
(2.43316e-15 0.670658 8.57129)
(-2.79368e-15 -0.520441 9.4612)
(-4.2152e-15 -1.73293 9.68749)
(-3.35551e-15 -2.52613 10.2837)
(-1.74423e-15 -2.37806 11.4138)
(-1.04329e-15 -1.03215 12.2458)
(-1.12163e-15 0.808431 12.3946)
(-8.514e-16 2.01784 12.6525)
(-5.08681e-16 1.96287 13.0031)
(5.41058e-16 1.08078 12.9919)
(9.4847e-16 0.794243 13.1302)
(1.21141e-15 0.513687 13.6067)
(1.58231e-15 -0.164001 13.8088)
(1.65914e-15 -0.858439 13.2648)
(2.23621e-15 -1.72777 11.1094)
(3.7309e-15 -3.0663 6.76479)
(-4.04598e-15 1.7895 4.1058)
(5.69462e-15 1.42408 5.72236)
(1.23075e-14 0.628469 7.49357)
(7.57633e-15 0.0651588 9.27666)
(2.85569e-15 -0.855565 10.5084)
(5.52547e-16 -1.96357 11.2222)
(-2.0964e-16 -2.75987 11.728)
(-1.60634e-16 -2.51619 11.9122)
(-1.45395e-16 -0.947233 11.4511)
(8.28344e-17 0.9054 10.7171)
(-1.464e-16 1.926 10.7897)
(-6.25439e-16 1.82478 11.7163)
(-5.57838e-16 0.921336 12.7895)
(2.88428e-16 0.523629 13.191)
(1.14346e-15 0.339194 13.4635)
(1.75672e-15 0.0293638 13.3888)
(2.24912e-15 0.104319 12.658)
(3.61673e-15 1.11276 10.4831)
(9.88517e-15 2.82182 6.37888)
(-2.94701e-16 1.43939 4.45234)
(5.94018e-15 0.728272 6.14616)
(1.31597e-14 -0.0559669 7.7743)
(9.71401e-15 -0.543778 9.36071)
(5.79553e-15 -1.28935 10.7245)
(3.43259e-15 -2.22295 11.612)
(2.01478e-15 -2.78771 11.8701)
(1.17814e-15 -2.24905 11.1441)
(8.92189e-16 -0.543163 9.46173)
(6.87966e-16 1.01612 8.08238)
(3.35059e-16 1.54012 7.48458)
(-9.86113e-17 1.00915 7.50805)
(-1.5204e-15 0.44095 9.51199)
(-2.42571e-15 0.503821 10.9865)
(-2.65805e-15 0.415245 12.0717)
(-2.85699e-15 0.14875 13.0985)
(-2.92573e-15 0.285933 13.5051)
(-3.03102e-15 1.42024 13.1845)
(-2.67806e-15 3.27595 12.4649)
(5.14604e-15 1.10416 4.76503)
(3.75145e-15 0.101049 6.22706)
(1.0489e-14 -0.649472 7.59993)
(8.74079e-15 -1.12641 8.97633)
(5.8219e-15 -1.74881 10.317)
(3.94505e-15 -2.42397 11.1158)
(2.74569e-15 -2.57163 11.043)
(1.84771e-15 -1.58049 9.80882)
(6.34113e-16 0.250527 8.06105)
(-7.66433e-16 1.63844 7.09198)
(-1.29081e-15 2.2425 5.78286)
(4.12352e-16 1.39952 3.28423)
(2.19091e-15 -0.282275 1.19687)
(-5.02013e-16 -0.473981 1.07772)
(-2.48507e-15 -0.494498 1.9129)
(-1.76398e-15 -0.525037 4.08516)
(-1.53531e-15 -0.189083 4.73503)
(-1.67476e-15 1.46632 5.91945)
(-2.33348e-15 5.89762 9.86095)
(1.06623e-14 0.849182 4.88374)
(1.28732e-15 -0.395171 5.87454)
(6.91665e-15 -1.15517 7.05108)
(7.00198e-15 -1.64063 8.24931)
(4.9967e-15 -2.1411 9.44221)
(3.54337e-15 -2.52082 10.027)
(2.74311e-15 -2.26232 9.66355)
(1.96687e-15 -1.02332 8.21318)
(3.36329e-16 0.622517 6.56995)
(-1.65459e-15 1.96689 5.63342)
(-3.0668e-15 2.98953 4.43768)
(-1.70903e-15 2.61274 2.75899)
(2.77141e-16 0.93619 0.904368)
(1.92173e-15 0.0860773 -0.358557)
(-1.82976e-16 -0.630414 -0.919)
(-9.11419e-16 -0.903867 -1.0195)
(-1.04641e-15 -0.458239 -1.43664)
(-2.2964e-16 -0.657401 -2.13978)
(9.23975e-16 -1.0089 -2.40437)
(1.412e-14 0.714292 4.8109)
(2.78034e-16 -0.755915 5.26162)
(3.28382e-15 -1.6015 6.25088)
(4.95756e-15 -2.08536 7.25859)
(4.13509e-15 -2.45188 8.23799)
(3.22143e-15 -2.52052 8.58335)
(2.32911e-15 -1.85723 7.90257)
(1.19021e-15 -0.351012 6.05288)
(-3.91884e-16 1.2239 4.09492)
(-2.19963e-15 2.43229 3.03695)
(-3.46218e-15 3.40683 2.18139)
(-1.72711e-15 2.98915 1.64855)
(-1.2327e-15 1.32034 0.479206)
(-1.026e-15 0.200941 -0.819504)
(9.70992e-16 -0.379039 -0.872447)
(1.58905e-15 -0.454004 -1.3264)
(2.52478e-15 0.0464051 -1.88856)
(1.79706e-15 1.17942 -1.22076)
(2.10253e-15 0.884085 -2.65382)
(1.52171e-14 0.685852 4.64157)
(4.20318e-16 -0.961594 4.71263)
(5.18707e-16 -1.95099 5.41684)
(2.47766e-15 -2.43283 6.17514)
(3.13257e-15 -2.65659 6.86475)
(2.62055e-15 -2.38423 6.9361)
(1.02414e-15 -1.24711 5.81216)
(-1.64074e-15 0.51353 3.41779)
(-3.15506e-15 1.83758 1.58106)
(-3.55579e-15 2.7216 0.797107)
(-3.20528e-15 3.50946 0.598117)
(-1.0461e-15 3.23065 0.935653)
(-7.26377e-16 1.86362 0.0382413)
(-6.50907e-16 0.597239 -1.03858)
(-5.12047e-16 -0.319289 -1.42622)
(8.92672e-16 -0.391814 -1.56825)
(1.43625e-15 -0.219315 -2.01639)
(7.94024e-16 0.223635 -1.7723)
(6.45613e-16 0.210949 -1.92101)
(1.59635e-14 0.704662 4.40409)
(1.24827e-16 -1.07069 4.26424)
(-1.38958e-15 -2.187 4.7071)
(1.11561e-16 -2.66687 5.18906)
(1.80326e-15 -2.75233 5.53564)
(1.5932e-15 -2.12222 5.27384)
(-8.53953e-16 -0.470725 3.7204)
(-4.12223e-15 1.33181 1.40552)
(-4.50057e-15 2.28787 0.397136)
(-3.50485e-15 2.81909 -0.0275943)
(-2.05986e-15 3.3579 0.111209)
(-4.93777e-16 3.25137 0.466483)
(-5.27978e-16 2.17728 -0.275387)
(-3.72073e-16 0.836673 -1.08717)
(-3.33425e-16 -0.174954 -1.6168)
(-1.00927e-16 -0.281683 -1.8205)
(1.23064e-16 -0.0300017 -2.02249)
(2.65726e-16 0.731626 -1.73596)
(4.48769e-16 0.776182 -1.68605)
(1.76709e-14 0.77039 4.10947)
(8.92514e-17 -1.09299 3.84808)
(-2.35045e-15 -2.31945 4.11116)
(-1.50919e-15 -2.76103 4.36931)
(2.72534e-16 -2.67217 4.4179)
(2.35054e-16 -1.67051 3.83227)
(-2.18184e-15 0.33928 2.10524)
(-3.59915e-15 1.80038 0.653152)
(-2.68098e-15 2.44099 0.392806)
(-2.05967e-15 2.82491 0.193518)
(-1.00936e-15 3.30167 0.215773)
(-2.16011e-16 3.37706 0.0939511)
(-4.13966e-16 2.47274 -0.473466)
(-3.7887e-16 1.09796 -1.08043)
(-3.304e-16 -0.00415515 -1.57833)
(-2.05903e-16 -0.208289 -1.81084)
(-5.82486e-19 -0.137117 -2.02592)
(2.50802e-16 0.255524 -1.77755)
(4.37271e-16 0.333179 -1.44245)
(1.97451e-14 0.82186 3.79852)
(9.2038e-16 -1.07433 3.45995)
(-2.24926e-15 -2.39456 3.61783)
(-2.18099e-15 -2.79838 3.76491)
(-1.19627e-15 -2.55823 3.65221)
(-1.39885e-15 -1.27504 2.82608)
(-2.89761e-15 0.848689 1.25317)
(-2.30638e-15 2.0158 0.658512)
(-1.28285e-15 2.49849 0.588404)
(-1.19065e-15 2.88111 0.364298)
(-7.19781e-16 3.38523 0.15671)
(-1.01101e-16 3.52051 -0.202945)
(-3.14863e-16 2.64136 -0.585519)
(-3.48129e-16 1.25072 -0.998044)
(-2.81921e-16 0.0956014 -1.36363)
(-1.29934e-16 -0.135841 -1.53311)
(7.654e-17 -0.0931279 -1.68226)
(2.79625e-16 0.342391 -1.48344)
(4.54297e-16 0.480508 -1.25985)
(2.07825e-14 0.961434 3.55454)
(3.74495e-16 -1.00869 3.1284)
(-1.33658e-15 -2.42337 3.11714)
(-1.52768e-15 -2.7555 3.11948)
(-1.87958e-15 -2.24403 2.90935)
(-2.36906e-15 -0.623993 2.11143)
(-2.2637e-15 1.20561 1.11315)
(-1.35381e-15 2.09821 0.7958)
(-8.61475e-16 2.5986 0.600234)
(-1.06306e-15 3.03011 0.297831)
(-6.29734e-16 3.56559 -0.00091287)
(-6.40359e-17 3.71422 -0.344276)
(-2.38385e-16 2.83516 -0.618304)
(-3.38376e-16 1.43598 -0.897523)
(-2.47239e-16 0.217844 -1.12749)
(-8.18917e-17 -0.0694718 -1.24115)
(1.06448e-16 -0.0998258 -1.37595)
(2.87139e-16 0.17876 -1.30237)
(4.5736e-16 0.156168 -1.20525)
(1.422e-16 5.83219 9.81502)
(-2.43935e-15 15.884 26.7999)
(-2.27869e-15 18.8941 30.2134)
(-2.40419e-15 17.4746 27.8169)
(-2.70456e-15 15.655 24.026)
(-3.69962e-15 14.4831 21.7814)
(-3.80662e-15 13.7371 20.0215)
(-3.56923e-15 13.0032 18.611)
(-3.60348e-15 12.2964 17.1582)
(-3.77362e-15 11.4958 15.812)
(-4.11346e-15 10.7637 14.5514)
(-4.55679e-15 9.96921 13.4135)
(-5.00616e-15 9.22805 12.2574)
(-5.6057e-15 8.32868 11.1456)
(-6.36749e-15 7.54708 9.94922)
(-7.4412e-15 6.51788 8.89087)
(-8.44955e-15 5.87783 7.81073)
(-1.03936e-14 4.74102 6.98783)
(-1.08357e-14 5.10104 7.16807)
(-9.14845e-15 4.23761 7.59282)
(2.27134e-16 7.77066 12.3569)
(-1.9466e-15 17.1013 28.0049)
(-1.69487e-15 18.1448 29.153)
(-1.87271e-15 15.4041 25.1492)
(-2.07693e-15 13.7169 22.2687)
(-2.95231e-15 13.1917 21.2689)
(-2.65794e-15 12.9036 20.4421)
(-2.53455e-15 12.164 18.9293)
(-2.87758e-15 11.24 17.0915)
(-3.18474e-15 10.2326 15.319)
(-3.54397e-15 9.32957 13.7101)
(-3.99676e-15 8.4205 12.3151)
(-4.47391e-15 7.60707 10.9463)
(-5.27762e-15 6.66493 9.65934)
(-6.04159e-15 5.87725 8.31656)
(-7.27005e-15 4.9208 7.19127)
(-8.39443e-15 4.38756 6.14907)
(-9.84855e-15 3.5054 5.37419)
(-9.79963e-15 3.71643 5.31635)
(-9.40946e-15 2.28646 3.93714)
(4.23279e-17 11.7665 19.8412)
(-6.54642e-16 19.4725 31.8316)
(-5.1947e-16 17.8793 29.2588)
(-5.88512e-16 14.8298 24.3559)
(-4.90667e-16 14.4067 23.808)
(-9.91128e-16 14.5482 23.4299)
(-7.35716e-16 14.0225 22.3777)
(-6.5653e-16 13.0312 20.4913)
(-7.12321e-16 11.7176 18.2001)
(-8.40125e-16 10.3253 15.9016)
(-1.02237e-15 9.05281 13.8558)
(-1.20874e-15 7.89869 12.1239)
(-1.54785e-15 6.87748 10.5401)
(-1.9406e-15 5.8332 9.07413)
(-2.41243e-15 4.9219 7.63823)
(-3.10076e-15 3.97261 6.41672)
(-3.59815e-15 3.37688 5.37231)
(-4.55782e-15 2.57403 4.51827)
(-4.6042e-15 2.45244 3.87515)
(-3.53328e-15 1.12597 2.30212)
(6.42464e-19 13.9891 24.4153)
(1.7218e-16 19.2722 32.0041)
(1.43783e-16 15.9644 27.4956)
(1.33276e-16 13.3747 22.5666)
(1.55556e-16 14.2102 24.7143)
(-5.42428e-16 14.4879 24.4737)
(-5.43611e-16 12.9176 22.1449)
(-6.47532e-16 11.4422 19.7745)
(-7.92689e-16 9.57512 16.8813)
(-8.57945e-16 7.74783 14.1872)
(-1.00515e-15 6.28694 12.0535)
(-1.23642e-15 5.05415 10.3869)
(-1.66673e-15 3.99735 8.87396)
(-2.03338e-15 2.96114 7.48554)
(-2.63404e-15 2.10289 6.18266)
(-3.43014e-15 1.35985 5.17116)
(-3.96368e-15 1.03421 4.44731)
(-4.75757e-15 0.956587 4.24652)
(-4.84816e-15 1.92309 4.66308)
(-3.83707e-15 2.09223 4.38753)
(6.97367e-19 14.4949 26.0019)
(-4.21078e-17 18.2205 30.668)
(-3.58031e-17 15.1857 27.1211)
(-3.69633e-17 12.9504 22.0265)
(-4.35994e-17 13.7013 24.4952)
(1.28738e-16 13.8296 24.193)
(1.6431e-16 11.098 20.0293)
(1.89905e-16 9.59161 17.8733)
(2.34107e-16 7.48487 14.5407)
(2.85489e-16 5.60767 11.8234)
(3.51092e-16 4.28787 9.86672)
(4.43653e-16 3.16196 8.42474)
(5.69969e-16 2.21162 7.19443)
(6.92576e-16 1.35882 6.20898)
(8.17153e-16 0.781079 5.54575)
(9.30591e-16 0.658024 5.53075)
(1.00478e-15 1.44833 6.62659)
(9.4185e-16 3.43481 9.4061)
(6.20914e-16 6.44015 12.7647)
(3.83619e-16 5.84348 10.8052)
(-2.42372e-19 14.143 25.6261)
(1.02281e-17 17.9407 30.0747)
(8.79057e-18 15.4849 27.701)
(9.76877e-18 12.866 21.5406)
(1.14611e-17 13.1514 23.0992)
(-3.52008e-17 13.7447 23.9397)
(-5.29156e-17 10.3305 17.9257)
(-5.96727e-17 9.11604 16.5283)
(-7.31156e-17 7.42665 13.2034)
(-8.71207e-17 5.76804 10.6602)
(-1.04408e-16 4.73947 8.4197)
(-1.28855e-16 3.61073 6.57835)
(-1.59443e-16 2.76346 4.96324)
(-1.86295e-16 2.07803 4.0112)
(-2.08491e-16 1.93806 3.96029)
(-2.22037e-16 2.59694 5.4799)
(-2.21173e-16 4.67195 9.05541)
(-1.93942e-16 7.61533 14.3841)
(-1.29691e-16 10.4598 18.3224)
(-8.14383e-17 8.01878 14.7223)
(7.34928e-20 14.0365 25.5951)
(-2.46459e-18 18.0632 30.0669)
(-2.18743e-18 15.6264 28.1917)
(-2.52032e-18 13.0034 21.6901)
(-3.02292e-18 13.1231 22.7645)
(9.28136e-18 13.9166 24.5142)
(1.50009e-17 10.3501 17.3131)
(1.61702e-17 9.34182 16.8405)
(1.85957e-17 8.63427 14.3558)
(2.06386e-17 7.43561 12.8269)
(2.30553e-17 6.98747 10.8772)
(2.66129e-17 5.91163 8.90659)
(3.17594e-17 5.01723 6.51816)
(3.81431e-17 3.98031 4.44757)
(4.55273e-17 3.47772 3.10311)
(5.10623e-17 3.55392 3.53747)
(5.17365e-17 5.14079 6.27721)
(4.66351e-17 7.17856 11.2252)
(3.40913e-17 9.60076 15.3695)
(1.6943e-17 8.22 15.0474)
(-1.74143e-20 13.9123 25.3341)
(5.90226e-19 18.0307 29.9425)
(5.44047e-19 15.5841 28.4068)
(6.39081e-19 13.1294 21.7063)
(7.37293e-19 13.0325 22.5792)
(-2.45612e-18 13.487 24.1878)
(-3.89854e-18 10.4057 17.2121)
(-4.04676e-18 9.29721 17.0466)
(-4.38361e-18 9.26752 15.4502)
(-4.68859e-18 8.195 14.5694)
(-5.03386e-18 7.94412 13.0774)
(-5.50756e-18 6.9253 11.5675)
(-6.08864e-18 6.15984 9.53811)
(-6.94811e-18 5.02332 7.36336)
(-8.57579e-18 4.07557 5.0645)
(-1.0948e-17 3.22289 3.5549)
(-1.33883e-17 3.53395 3.73587)
(-1.5034e-17 4.67598 6.73979)
(-1.1913e-17 7.23627 11.0239)
(-4.77955e-18 6.78376 12.0908)
(3.96517e-21 13.8359 25.0075)
(-1.40423e-19 18.1555 30.0527)
(-1.33971e-19 15.5948 28.6177)
(-1.5744e-19 13.4745 21.94)
(-1.79551e-19 12.9339 22.2599)
(6.26468e-19 13.2182 23.8091)
(9.45554e-19 10.7452 17.4403)
(9.69384e-19 9.31184 16.8122)
(1.01593e-18 9.41388 15.603)
(1.08383e-18 8.32485 14.6233)
(1.14487e-18 7.86404 13.2198)
(1.22445e-18 6.85522 11.805)
(1.35474e-18 6.06604 10.1483)
(1.67095e-18 4.99965 8.38039)
(2.12377e-18 4.08366 6.41249)
(2.26185e-18 3.1355 4.80257)
(1.40796e-18 3.06711 4.13533)
(4.8283e-19 3.92463 6.05412)
(1.50644e-18 6.24702 9.47708)
(1.80444e-18 5.30066 9.37495)
(-9.90867e-22 14.0397 25.0216)
(3.30609e-20 18.3911 30.3399)
(3.29393e-20 15.5657 28.6961)
(3.7614e-20 13.9748 22.5168)
(4.42071e-20 13.0381 22.2257)
(-1.50551e-19 13.0949 23.3733)
(-2.17409e-19 11.2113 18.2114)
(-2.23936e-19 9.69856 16.8737)
(-2.29867e-19 9.54664 15.7717)
(-2.44994e-19 8.73712 14.6482)
(-2.57808e-19 8.06134 13.3463)
(-2.88565e-19 7.24676 11.8716)
(-3.43552e-19 6.37645 10.3176)
(-3.59131e-19 5.43468 8.6271)
(-2.41409e-19 4.51849 6.84867)
(-1.74775e-19 3.69361 5.40246)
(-4.45505e-19 3.59374 4.85084)
(-5.4294e-19 4.30243 6.25202)
(-8.54442e-20 5.45621 8.01846)
(8.16851e-20 3.85629 6.55489)
(2.73432e-22 14.595 25.6683)
(-7.62891e-21 18.616 30.6346)
(-8.15711e-21 15.5927 28.5199)
(-8.6812e-21 14.5975 23.5563)
(-1.07532e-20 13.3267 22.6078)
(3.62115e-20 13.1161 22.6237)
(4.92671e-20 11.6098 19.1761)
(5.01846e-20 10.4984 17.3738)
(5.03541e-20 9.87565 16.2922)
(5.39537e-20 9.35745 14.9777)
(5.88557e-20 8.55785 13.7559)
(6.51528e-20 7.89847 12.2962)
(5.90279e-20 7.06336 10.8446)
(4.10609e-20 6.27055 9.27218)
(9.30496e-20 5.44523 7.66445)
(2.37064e-19 4.73091 6.2732)
(3.01409e-19 4.42232 5.46899)
(3.11167e-19 4.37616 5.56894)
(3.88696e-19 3.88058 5.05748)
(4.39119e-19 1.81593 2.5854)
(-7.99271e-23 15.4321 27.2874)
(1.74958e-21 18.7046 30.8188)
(2.00434e-21 15.7982 27.9363)
(2.05748e-21 15.0149 24.8604)
(2.44119e-21 13.779 23.6406)
(-6.44022e-21 13.5543 21.9202)
(-1.05561e-20 11.831 20.1811)
(-1.1054e-20 11.4863 18.2265)
(-1.11717e-20 10.4785 17.1047)
(-1.19693e-20 10.1064 15.6388)
(-1.28856e-20 9.25711 14.4015)
(-1.29217e-20 8.68239 12.9558)
(-1.32234e-20 7.88598 11.5789)
(-2.2022e-20 7.17228 10.087)
(-4.08506e-20 6.35257 8.58727)
(-5.54839e-20 5.56089 7.09595)
(-4.31952e-20 4.61343 5.50064)
(-2.52299e-20 3.32411 3.55064)
(6.55401e-20 1.29486 0.841435)
(3.07082e-19 -0.858514 -2.34587)
(2.26434e-23 16.2059 29.4894)
(-4.0258e-22 18.8267 30.3954)
(-4.71905e-22 15.6243 28.4586)
(-4.54195e-22 16.0347 26.1463)
(-5.88686e-22 14.0935 24.7216)
(1.1642e-21 13.703 22.3887)
(2.33473e-21 12.2828 20.9227)
(2.59542e-21 12.0386 19.3613)
(2.52584e-21 11.1379 18.2523)
(2.65706e-21 10.7149 16.7686)
(2.81603e-21 9.86661 15.3948)
(3.41751e-21 9.19986 13.8581)
(6.3998e-21 8.28869 12.3174)
(1.30235e-20 7.36085 10.6166)
(2.16376e-20 6.22135 8.74694)
(2.98867e-20 4.96567 6.58821)
(5.36148e-20 3.29708 4.10524)
(-2.48065e-20 1.43609 0.937689)
(-1.04544e-19 -1.12223 -2.08774)
(-2.75663e-19 -2.6939 -5.72196)
(-6.13386e-24 16.4868 30.784)
(9.54621e-23 18.2409 29.306)
(1.21554e-22 15.1291 28.3658)
(1.33398e-22 15.743 25.8926)
(1.39699e-22 13.6049 25.0153)
(-3.60714e-22 13.6364 23.2002)
(-8.34995e-22 12.1469 21.9111)
(-1.20493e-21 11.8697 20.4077)
(-1.21051e-21 10.8202 19.3445)
(-1.58544e-22 10.2565 17.8508)
(2.17001e-21 9.16308 16.2271)
(5.52472e-21 8.03351 14.2021)
(8.84848e-21 6.59543 12.0339)
(8.82554e-21 5.30392 10.0232)
(9.17795e-21 4.05233 8.1183)
(9.89644e-21 2.55549 5.658)
(-2.46731e-20 0.46172 2.4713)
(-2.33176e-19 -1.95503 -1.56126)
(-5.05991e-19 -4.13973 -5.06436)
(-4.23987e-19 -2.86866 -4.5789)
(1.06685e-24 15.9575 30.3751)
(-2.30035e-23 17.6622 28.1556)
(-1.92671e-23 14.4091 27.6186)
(-1.10028e-23 15.1318 24.9707)
(-5.31313e-23 12.6825 24.0512)
(-1.60992e-22 12.6069 22.0319)
(-4.70363e-22 11.0427 20.9239)
(-7.35537e-22 10.4532 19.3883)
(-4.28291e-22 9.33573 18.1607)
(1.21536e-21 8.39431 16.6479)
(5.76079e-21 7.02518 14.6832)
(1.34256e-20 5.44443 12.1643)
(1.63315e-20 3.96434 9.80964)
(3.63642e-21 2.95645 8.15805)
(-2.98808e-20 2.00126 6.56415)
(-1.31545e-19 0.656414 4.2235)
(-4.51345e-19 -1.14679 0.987072)
(-8.23293e-19 -1.83066 -0.785101)
(-4.96308e-19 0.566399 2.38783)
(-1.19598e-19 1.94115 4.58929)
(-4.28291e-25 15.4631 30.1286)
(6.30766e-24 18.002 27.7519)
(1.29778e-23 14.1385 27.2838)
(1.74658e-23 15.4118 24.3436)
(-1.70244e-23 12.7623 23.5145)
(-1.62971e-22 12.8864 21.279)
(-4.08896e-22 11.3143 20.0271)
(-6.93606e-22 10.7567 18.3186)
(-8.92004e-22 9.70005 16.9366)
(-8.77093e-22 8.90135 15.4424)
(-4.0219e-22 7.99078 13.9922)
(1.0883e-21 7.17216 12.4758)
(2.15055e-21 6.41955 10.976)
(-5.64377e-21 5.71368 9.47176)
(-4.02919e-20 4.92694 7.9089)
(-1.12091e-19 4.10502 6.29678)
(-1.82746e-19 3.42379 4.91299)
(-1.71827e-19 3.18196 4.30945)
(-1.14156e-19 3.19351 4.21185)
(-7.63109e-20 2.73404 3.7695)
(1.77445e-27 15.2127 30.6064)
(-2.10118e-25 18.3764 27.8142)
(4.38605e-24 14.0914 27.5357)
(3.4924e-24 15.5232 24.6527)
(-3.51909e-23 13.0776 23.7758)
(-1.44037e-22 13.0977 21.7505)
(-3.31891e-22 11.8516 20.4581)
(-5.56411e-22 11.3123 18.8839)
(-7.48278e-22 10.522 17.5138)
(-8.54647e-22 9.90465 16.1344)
(-8.89854e-22 9.28986 14.8307)
(-1.06819e-21 8.73064 13.5479)
(-1.57149e-21 8.1629 12.2275)
(-1.52886e-21 7.53227 10.761)
(1.39792e-21 6.73992 9.05802)
(1.14171e-20 5.74469 7.02255)
(1.98211e-20 4.41719 4.72359)
(4.93974e-20 3.07031 2.57028)
(9.87458e-20 1.23588 0.707953)
(7.76474e-21 -0.0152304 -1.82057)
(-2.49534e-26 14.33 30.7599)
(1.52149e-24 18.2134 27.6169)
(4.95507e-24 13.5041 27.5797)
(5.26019e-25 14.5746 25.1157)
(-4.03436e-23 12.4692 24.1635)
(-1.46491e-22 12.1008 22.5044)
(-3.09361e-22 11.0306 21.2624)
(-4.78101e-22 10.3796 19.907)
(-5.79192e-22 9.64423 18.6704)
(-5.47588e-22 9.02929 17.439)
(-3.13601e-22 8.42609 16.2324)
(1.83748e-22 7.84408 14.9892)
(6.72326e-22 7.22441 13.6489)
(-3.4209e-22 6.49785 12.0764)
(-6.51782e-21 5.49372 10.0316)
(-2.29426e-20 4.03222 7.0972)
(-4.75471e-20 1.75148 3.17114)
(-7.56086e-20 -1.03782 -2.68637)
(8.25785e-20 -2.97903 -4.6219)
(-7.05832e-20 -2.56934 -6.40959)
(2.79278e-26 11.3657 28.6837)
(4.66377e-25 17.0529 25.1436)
(1.49072e-24 12.074 25.5553)
(-1.70046e-24 12.7234 23.8447)
(-2.22619e-23 10.9841 23.107)
(-7.44849e-23 10.3236 22.0256)
(-1.57651e-22 9.33532 21.1197)
(-2.48017e-22 8.56767 20.1792)
(-3.03379e-22 7.80364 19.276)
(-2.71037e-22 7.1176 18.3732)
(-9.09887e-23 6.47052 17.4693)
(2.51498e-22 5.86163 16.5382)
(4.8895e-22 5.26228 15.5341)
(-5.21574e-22 4.6182 14.3409)
(-5.68941e-21 3.81093 12.7155)
(-1.98648e-20 2.65135 10.2814)
(-4.64377e-20 1.02269 6.68478)
(-7.80155e-20 -0.909007 2.06773)
(-9.16894e-20 -2.55097 -2.22845)
(-8.06484e-20 -2.14321 -3.68648)
(2.2349e-26 2.67092 17.0817)
(6.66645e-26 8.06869 13.7219)
(-2.67077e-26 5.17532 14.5977)
(-4.24283e-25 4.98707 14.2064)
(-1.65847e-24 4.05153 14.1782)
(-4.6015e-24 3.47836 14.0141)
(-9.45613e-24 2.8918 13.8675)
(-1.46487e-23 2.40854 13.6862)
(-1.73056e-23 1.98449 13.4838)
(-1.46054e-23 1.6332 13.2575)
(1.96458e-24 1.35388 13.0148)
(7.15423e-23 1.15341 12.7636)
(3.06954e-22 1.03616 12.5143)
(9.12084e-22 1.01679 12.2706)
(2.08368e-21 1.11654 12.0213)
(3.73393e-21 1.30203 11.7511)
(5.16387e-21 1.60417 11.3433)
(5.20686e-21 2.33283 10.4007)
(3.4329e-21 2.64293 8.8872)
(1.14499e-21 -0.128662 6.7155)
(-2.54154e-26 -2.68352 17.1044)
(2.79111e-25 -8.07126 13.7455)
(1.16752e-24 -5.17942 14.6195)
(1.20201e-24 -4.98772 14.2297)
(-4.00742e-24 -4.05396 14.202)
(-2.08238e-23 -3.48248 14.0395)
(-5.39533e-23 -2.90045 13.8954)
(-1.01361e-22 -2.42314 13.7177)
(-1.49802e-22 -2.00576 13.5185)
(-1.75841e-22 -1.65913 13.2914)
(-1.61732e-22 -1.37921 13.0389)
(-1.21743e-22 -1.16949 12.7618)
(-9.05906e-23 -1.03116 12.4622)
(-3.09613e-23 -0.976427 12.1419)
(2.399e-22 -1.02897 11.8106)
(8.65487e-22 -1.16768 11.5031)
(1.51111e-21 -1.43924 11.1415)
(1.39016e-21 -2.16102 10.2792)
(4.60873e-22 -2.48709 8.77413)
(-6.15894e-23 0.164322 6.56447)
(-1.11362e-25 -11.3295 28.6782)
(1.88223e-25 -17.1115 25.0898)
(3.10362e-24 -12.0943 25.5037)
(1.00799e-23 -12.8022 23.7606)
(8.77588e-24 -11.073 23.0033)
(-3.87064e-23 -10.4484 21.8945)
(-1.71428e-22 -9.49106 20.9645)
(-3.53191e-22 -8.76502 20.0023)
(-4.26787e-22 -8.05021 19.0846)
(-2.34251e-22 -7.42448 18.177)
(1.51642e-22 -6.84473 17.2749)
(4.19749e-22 -6.30391 16.3464)
(3.74061e-22 -5.77934 15.3675)
(3.12021e-23 -5.25536 14.3052)
(-1.22866e-21 -4.65785 13.0128)
(-5.31144e-21 -3.73208 11.0314)
(-1.25398e-20 -2.10009 7.58679)
(-1.58941e-20 0.370083 2.38959)
(-6.35497e-21 2.78983 -2.8355)
(4.48844e-22 2.43318 -4.67277)
(-1.72731e-25 -14.149 30.4662)
(-9.48559e-25 -18.1187 27.2623)
(2.26572e-24 -13.3314 27.2379)
(1.70527e-23 -14.4806 24.6936)
(3.32643e-23 -12.332 23.7227)
(-2.32765e-24 -11.9927 21.9988)
(-1.54173e-22 -10.9087 20.7096)
(-3.87779e-22 -10.2617 19.2903)
(-5.19163e-22 -9.52227 17.9976)
(-3.64669e-22 -8.9138 16.7188)
(1.42465e-23 -8.33768 15.4951)
(3.08532e-22 -7.83541 14.2995)
(3.26391e-22 -7.38059 13.1087)