/*--------------------------------*- C++ -*----------------------------------*\
| =========                 |                                                 |
| \\      /  F ield         | OpenFOAM: The Open Source CFD Toolbox           |
|  \\    /   O peration     | Version:  4.1                                   |
|   \\  /    A nd           | Web:      www.OpenFOAM.org                      |
|    \\/     M anipulation  |                                                 |
\*---------------------------------------------------------------------------*/
FoamFile
{
    version     2.0;
    format      ascii;
    class       volScalarField;
    location    "20";
    object      p;
}
// * * * * * * * * * * * * * * * * * * * * * * * * * * * * * * * * * * * * * //

dimensions      [0 2 -2 0 0 0 0];

internalField   nonuniform List<scalar> 
1280
(
0.0760699
-0.0336829
0.770651
0.3797
0.52422
0.549162
-0.118834
-0.316885
-0.582413
-0.753811
-2.27047
-1.88994
-2.62021
-5.32661
-4.17253
-6.25867
-9.47096
-11.7607
-8.50325
-27.4771
-9.45805
11.3603
22.8425
20.8764
18.3543
24.6531
9.60355
10.2158
7.56829
7.67452
7.18258
6.49637
5.98797
4.8507
3.8159
1.58194
0.114912
-1.8265
0.420595
6.12941
-12.5002
-5.51515
1.30087
6.61468
17.6809
17.6937
17.8496
18.2033
17.4095
18.1365
18.1464
18.024
18.5169
18.3845
18.5584
18.125
7.00725
1.34703
-4.81386
-1.76754
6.58117
-3.32386
-6.99509
-4.42063
-3.10645
-0.611746
0.772688
2.74015
4.14733
5.60878
6.72542
7.5326
7.93784
-1.43622
31.7565
25.5592
23.2091
25.1291
13.6845
-6.76483
-22.9341
-6.43528
-7.94286
-6.78159
-4.25149
-1.65381
-3.49124
-1.44887
-0.115476
-1.36557
-0.366122
0.293965
-0.12382
-0.37696
-0.0477488
0.701411
-0.221718
-0.00951843
0.362307
-0.117997
-1.66624
0.0470187
-1.33271
2.52576
0.636768
0.612213
0.300927
0.17446
-0.0310867
-0.283762
-0.755355
-2.52568
-4.45774
-3.82562
0.407822
1.26898
1.03257
0.465598
0.42861
-0.885079
0.489268
-1.12515
5.69245
2.07559
1.62385
0.926761
0.560621
-0.0289442
-0.185976
-0.186105
-7.4402
-12.4965
-8.71946
0.357561
2.52691
2.34731
1.04868
0.791505
-3.56764
-3.35302
-1.66498
6.38526
3.46352
2.66165
1.57665
0.692412
-0.627921
-0.767108
-0.886675
-14.7062
-18.9382
-12.6294
0.975405
3.91976
3.47188
1.14101
1.06386
-4.47846
-5.5709
-2.4949
6.5721
4.2622
3.31932
1.92148
0.524421
-1.36732
-0.569097
-0.342504
-16.8829
-20.9869
-14.8558
1.6177
5.61229
4.90037
1.86383
1.76254
-6.2314
-8.69742
-3.44912
6.12345
4.39119
3.61623
1.98843
0.134255
-2.06237
-0.403266
-0.000692878
-15.4172
-20.6377
-15.4555
2.13165
7.21684
5.50272
1.25508
1.3716
-7.14267
-10.0108
-4.25521
5.05605
3.84236
3.56266
1.94881
-0.16456
-2.68492
-1.08999
-0.6416
-11.1747
-19.5672
-15.7782
2.40152
9.05166
6.82367
2.83605
2.24784
-7.69403
-10.0569
-4.6983
3.5943
2.8132
3.18446
2.07591
0.055284
-3.65608
-4.23822
-4.9208
-8.01389
-18.6423
-14.145
1.89795
9.77946
5.57826
-0.367921
1.13003
-7.54999
-8.78511
-4.6904
2.10818
1.71036
2.94485
2.71161
0.424047
-6.05846
-9.50805
-9.80637
-4.70688
-16.3411
-10.6095
1.18713
10.864
7.35201
5.62129
3.71283
-7.30691
-7.14417
-4.46804
1.00786
0.896632
3.01241
3.63031
0.685796
-8.37463
-13.2749
-10.2861
0.775688
-12.0093
-8.6351
3.06664
12.2771
9.35221
19.7309
24.4934
-7.63571
-5.80115
-4.35415
0.332295
0.478978
3.142
4.01572
0.484236
-8.30332
-13.671
-6.87564
7.44489
-1.34776
-3.53172
-0.722359
4.49819
9.23668
32.676
19.4253
-8.42568
-5.12049
-4.63546
-0.232469
0.159631
3.18237
4.40303
0.714927
-6.89429
-12.7906
-2.99402
12.476
7.08364
2.36165
-3.2819
-2.23567
6.90054
33.3044
18.6001
-8.28663
-3.76266
-4.91393
-1.34582
-0.332405
3.84304
5.65514
1.69176
-5.50402
-11.0846
0.863874
17.9729
13.3805
3.49533
-7.52461
-10.8855
-4.55692
16.9063
23.5426
-6.73973
-0.74316
-4.68595
-3.08683
-1.25281
5.09186
7.53414
2.80633
-4.6754
-8.81283
4.63257
23.8101
18.6659
2.82058
-15.9545
-23.1177
-11.5862
7.51278
5.63637
-4.2873
3.33709
-3.97702
-6.08201
-3.83406
4.8936
8.52333
3.49528
-3.5982
-5.84849
7.33217
27.1328
21.5945
2.42485
-20.6499
-23.8295
-12.4512
-0.0962404
1.41687
-1.6879
6.59307
-3.71181
-8.81935
-5.39636
4.64495
8.15934
3.54175
-2.02982
-3.07654
8.22117
26.7532
20.8051
1.2813
-22.8648
-24.1623
-11.9633
0.544148
1.99637
0.604779
8.18561
-4.12723
-9.21057
-6.6217
4.04465
7.2181
3.71069
-0.636193
-1.00491
7.93598
23.8769
17.9337
0.0488166
-22.1456
-24.6236
-11.7551
-1.58345
0.327967
1.97326
7.68262
-5.19451
-7.30765
-7.49069
3.20936
5.80565
3.51615
0.392895
0.346257
6.76411
19.4461
14.4833
-0.438397
-18.1644
-21.5181
-9.43842
-1.43019
0.455852
2.13892
6.47937
-5.73936
-5.18201
-6.41309
2.64353
4.40971
2.95566
0.826385
0.928992
5.23643
14.2368
10.9894
-0.365712
-12.6421
-15.1279
-7.1297
-1.60221
-0.008089
1.09816
3.45221
-5.1586
-3.6358
-5.8966
1.93565
3.26208
2.34089
0.966628
1.09054
3.65931
9.05186
6.75802
0.17387
-6.61002
-8.66564
-4.66091
-1.18514
0.1182
0.354688
1.67089
-2.11405
-2.36637
-5.06545
-0.532723
0.559901
0.355968
-0.0613738
0.0775043
1.09504
2.92207
1.60587
-0.343288
-1.99198
-2.64014
-1.73665
-0.525235
-0.0748877
150.225
148.205
146.552
146.604
143.557
141.35
137.918
135.925
132.876
130.594
128.338
126.161
124.424
122.493
121.378
119.619
119.388
117.513
118.213
116.697
93.9388
94.0172
95.3571
96.8935
97.0174
97.3927
97.0525
96.9477
97.0447
96.9519
97.1869
97.0949
97.4452
97.3054
97.8668
97.6462
98.6064
98.3071
99.8272
99.999
110.305
109.453
111.056
111.533
111.634
111.249
111.276
110.642
110.569
110.077
110.056
109.721
109.881
109.584
109.972
109.596
110.305
109.861
111.137
111.029
90.6984
90.4691
92.6298
93.0958
94.066
93.9073
94.4267
94.2978
94.61
94.6637
94.9996
95.1965
95.7618
96.0056
96.853
97.0471
98.2048
98.3839
100.03
100.603
90.9753
90.4441
92.5328
92.2539
93.8242
93.0591
93.624
93.4858
93.5339
93.6213
93.6353
93.8239
94.1378
94.3745
95.1084
95.3263
96.507
96.6925
98.4698
98.8561
81.7372
81.5919
83.3335
82.7086
85.138
83.5419
84.1498
84.234
84.0267
84.3418
84.0592
84.355
84.4672
84.7529
85.4485
85.7358
87.0853
87.3693
89.4768
89.9283
79.6838
79.9348
80.8
79.9838
83.4111
80.6122
81.2132
81.5234
80.8594
81.3396
80.632
80.8331
80.6108
80.6025
81.0306
80.9477
82.105
82.1453
84.2269
84.5356
75.6268
76.6532
76.3711
75.7308
80.3936
76.1545
76.6749
77.6597
76.3902
77.1155
76.1092
76.1304
75.7124
75.3033
75.4867
74.9595
75.8299
75.488
77.4059
77.653
74.1715
76.0617
74.4084
74.0047
80.0351
74.7562
74.8673
76.9846
75.394
76.3027
75.4118
75.2443
74.9093
74.2649
74.3385
73.6034
74.2092
73.7654
75.3923
75.4949
70.4228
73.1385
70.0654
69.9424
78.0414
71.5236
70.9166
74.7145
73.2364
74.096
73.8562
73.6696
73.8374
73.4085
73.6861
73.2372
73.7511
73.6339
75.0339
75.7297
63.7065
66.088
62.5148
62.3429
69.9761
64.9114
63.8756
67.349
67.0861
66.7736
67.1813
66.5493
67.0201
66.4793
66.8066
66.1993
66.5814
66.4904
67.7929
69.2744
60.6259
61.0261
61.7513
60.0079
61.2044
56.9701
59.3955
56.2094
58.0014
55.4573
56.2979
54.5875
54.7689
53.7089
53.7579
53.2868
54.0271
54.4983
55.7258
55.8781
68.1975
69.3207
69.9794
68.4714
70.7292
67.8023
69.4962
66.3989
67.675
65.3557
65.6333
64.1106
63.7812
62.7567
62.1416
61.343
60.7902
59.863
59.3497
59.272
60.0608
62.0608
64.2508
63.6393
67.1054
66.2238
69.246
67.6051
70.1339
70.4062
71.7352
72.1359
72.6973
73.1194
73.3766
73.3909
73.3942
72.907
73.3234
73.8055
33.9365
34.2049
36.7234
34.9736
37.9325
36.7344
38.6598
38.5764
39.5106
39.9919
40.621
41.2166
41.793
42.4408
43.1213
44.0234
45.6891
47.8041
49.6562
51.83
33.5561
30.7711
32.129
28.1299
29.4873
26.6177
26.715
25.1377
24.5792
23.6178
22.9532
22.2985
21.8387
21.6218
21.7329
22.1132
22.482
23.0925
23.7051
25.3203
71.1601
66.5705
68.1012
60.9784
60.5987
55.4683
53.0044
49.2077
46.1962
43.0131
40.1518
37.4639
35.1487
33.3167
32.0711
31.2022
30.4706
29.6529
28.4158
28.1604
80.0537
73.7837
81.8079
74.931
77.0851
73.8128
72.7192
70.307
68.2115
65.8221
63.4596
61.0996
58.9101
57.0877
55.7829
54.8257
54.1746
53.8794
53.3286
52.452
88.254
66.7052
75.0144
64.2341
61.7899
55.4013
50.7213
45.6827
41.3361
37.446
34.2658
31.8606
30.3858
30.0156
30.9317
32.9625
35.8969
40.1332
44.3099
46.1516
772.29
690.016
641.196
585.092
536.298
489.211
445.457
404.136
365.248
328.495
293.7
260.659
229.158
199.123
170.614
142.864
115.93
93.9056
69.3464
32.4488
730.716
647.731
598.498
541.836
492.542
444.923
400.664
358.859
319.541
282.434
247.39
214.214
182.704
152.845
124.809
97.8811
72.519
53.1289
29.9845
-7.86545
35.6078
13.032
20.8966
9.33851
6.23572
-0.843473
-6.18612
-11.844
-16.7719
-21.1734
-24.8041
-27.6066
-29.4848
-30.351
-30.1228
-28.7918
-26.3439
-23.4794
-21.6105
-19.6902
11.6211
5.09553
12.8633
5.67165
7.35958
3.64772
2.02237
-0.936576
-3.5965
-6.58612
-9.57455
-12.6666
-15.779
-18.84
-21.6313
-23.5584
-24.2621
-23.2915
-22.2681
-20.1598
16.9236
14.1127
16.8207
10.7231
11.9288
7.95094
6.90115
4.58636
3.04056
1.52909
0.344079
-0.551808
-1.14266
-1.3315
-1.05156
0.0692754
2.01696
5.21361
8.40828
12.1502
17.1485
18.2428
22.1726
20.6468
25.4537
25.5703
29.2466
31.4557
34.7498
37.8832
41.2981
44.7492
48.2189
51.3856
53.9033
55.5936
57.2533
59.1745
60.9201
62.9321
61.6303
61.1103
62.7852
60.5241
63.2335
61.2312
62.641
60.766
60.642
59.248
57.7225
55.5514
52.6938
48.8432
45.8756
48.0714
48.4661
49.6684
50.2517
49.7644
-15.3689
-19.9213
-21.9092
-27.941
-30.7287
-37.5554
-41.762
-48.42
-53.9737
-60.3538
-67.0701
-72.0332
-80.2951
-37.9536
48.2091
44.5747
42.9022
40.7968
37.9883
39.1648
-31.5619
-32.2455
-30.3303
-31.6451
-29.2063
-29.8662
-27.4784
-27.1719
-25.3151
-23.7349
-21.8649
-18.8606
-15.8115
-12.7097
-10.1905
-14.2463
-11.5791
-7.75359
-15.8128
-11.5047
0.715756
3.39723
6.12793
6.21521
9.83612
9.91988
13.0046
13.6043
15.8744
17.1061
19.0446
20.7306
22.9424
25.2227
28.3481
29.8962
33.4802
37.4982
37.5335
41.4293
35.6279
39.6586
41.5067
42.5943
45.3531
46.3733
48.7694
50.0599
52.1299
53.7123
55.7166
57.4907
59.3194
60.9904
62.404
63.8853
65.3614
67.3241
69.0097
72.2247
60.5604
64.3202
65.1413
66.4891
68.1986
68.8819
70.4393
71.1019
72.2473
72.9283
73.852
74.4648
75.0796
75.3944
75.6316
75.6944
76.2731
76.4774
78.0274
78.8199
72.1529
74.5577
74.4644
75.5263
75.8691
75.9447
76.4471
76.2435
76.5631
76.289
76.4173
76.0356
76.0111
75.3924
75.2658
74.5008
74.8299
74.3011
75.9691
75.7068
72.4292
73.4621
73.1936
74.0415
73.633
73.4286
73.4055
72.7592
72.7779
72.0492
72.0515
71.3422
71.381
70.6694
70.8889
70.2395
70.977
70.5355
72.4989
72.4372
72.1332
72.4335
72.8015
73.6394
73.2762
73.1077
73.0808
72.4999
72.5726
71.9515
72.1128
71.6398
71.978
71.6836
72.368
72.2606
73.4521
73.5051
75.5764
75.8534
73.5414
73.8036
74.9272
76.1554
75.957
76.0436
75.9974
75.656
75.785
75.4043
75.7098
75.4294
75.9495
75.7872
76.6248
76.6133
77.8213
77.9839
79.7988
80.1583
81.6869
81.4687
82.7493
84.0211
83.5097
83.5741
83.1217
82.7434
82.5544
82.0243
82.0855
81.5211
81.8097
81.2532
81.7843
81.2755
82.0338
81.6397
82.9008
82.8894
76.058
75.5902
76.7994
78.1189
77.2982
77.4007
76.6748
76.3297
75.9584
75.4394
75.4149
74.8617
75.1418
74.5864
75.1291
74.5363
75.298
74.7461
75.9269
76.062
86.6985
85.3706
86.1631
87.1949
85.9468
85.8723
84.7884
84.275
83.5457
82.8594
82.4864
81.7854
81.7586
81.0321
81.3052
80.434
81.0086
80.0042
81.0265
80.8312
66.5643
66.3328
66.9793
69.0406
68.0733
68.5439
67.7586
67.8345
67.4436
67.3277
67.3299
67.1681
67.5563
67.3342
68.0509
67.6881
68.7222
68.2546
69.7947
70.2802
118.268
117.009
115.263
116.368
112.942
111.234
108.309
105.979
103.173
101.005
99.0372
97.2434
96.0171
94.5433
93.9939
92.5949
92.8391
91.1993
92.0917
91.2562
)
;

boundaryField
{
    outletWall
    {
        type            fixedValue;
        value           uniform 0;
    }
    fineWalls
    {
        type            zeroGradient;
    }
    fineFrontAndBack
    {
        type            zeroGradient;
    }
    fineplugLeft
    {
        type            cyclicAMI;
        value           nonuniform List<scalar> 
20
(
94.5832
94.6548
93.6448
95.533
96.0118
97.8652
98.9642
100.737
102.228
104.107
106.01
107.815
110.783
123.327
118.011
118.516
121.459
121.81
120.836
118.289
)
;
    }
    fineplugRight
    {
        type            cyclicAMI;
        value           nonuniform List<scalar> 
20
(
74.3212
73.0086
71.5604
73.3871
73.4546
75.0728
75.7891
77.3617
78.6242
80.3515
82.1491
84.0452
86.371
95.8304
95.3384
95.4651
97.7361
97.2366
96.3444
93.2616
)
;
    }
    inletOutletLeft
    {
        type            cyclicAMI;
        value           nonuniform List<scalar> 
20
(
94.5832
94.6548
93.6448
95.533
96.0118
97.8652
98.9642
100.737
102.228
104.107
106.01
107.815
110.783
123.327
118.011
118.516
121.459
121.81
120.836
118.289
)
;
    }
    inletLeft
    {
        type            zeroGradient;
    }
    inletWallsLeft
    {
        type            zeroGradient;
    }
    inletFacesLeft
    {
        type            zeroGradient;
    }
    inletOutletRight
    {
        type            cyclicAMI;
        value           nonuniform List<scalar> 
20
(
74.3212
73.0086
71.5604
73.3871
73.4546
75.0728
75.7891
77.3617
78.6242
80.3515
82.1491
84.0452
86.371
95.8304
95.3384
95.4651
97.7361
97.2366
96.3444
93.2616
)
;
    }
    inletRight
    {
        type            zeroGradient;
    }
    inletWallsRight
    {
        type            zeroGradient;
    }
    inletFacesRight
    {
        type            zeroGradient;
    }
}


// ************************************************************************* //
