/*--------------------------------*- C++ -*----------------------------------*\
| =========                 |                                                 |
| \\      /  F ield         | OpenFOAM: The Open Source CFD Toolbox           |
|  \\    /   O peration     | Version:  4.1                                   |
|   \\  /    A nd           | Web:      www.OpenFOAM.org                      |
|    \\/     M anipulation  |                                                 |
\*---------------------------------------------------------------------------*/
FoamFile
{
    version     2.0;
    format      ascii;
    class       surfaceScalarField;
    location    "20";
    object      phi;
}
// * * * * * * * * * * * * * * * * * * * * * * * * * * * * * * * * * * * * * //

dimensions      [0 3 -1 0 0 0 0];

internalField   nonuniform List<scalar> 
2360
(
-632.136
1438.56
-2070.7
1438.56
1438.56
3301.36
-1862.8
3301.36
3301.36
3301.36
5168.39
-1867.03
5168.39
5168.39
7213.27
-2044.88
7213.27
7213.27
9480.2
-2266.93
9480.2
9480.2
13004.1
-3523.87
13004.1
13004.1
14199.3
15937.4
17449.3
18760.6
19944.1
21186
16953.7
5399.12
18005.5
18974.2
19894.1
20777
21625.7
22430.7
23186.7
23872.6
24483.3
25022.2
25571
26267.3
27105
11869.7
15235.3
11869.7
11869.7
11869.7
10.7408
11859
10.7405
10.7409
10.7407
-21.4715
32.2123
-21.4713
-21.4712
27.1743
-48.6452
27.1741
27.1747
27.1742
-12302.7
12329.9
-12302.7
-12302.7
-12302.7
-27768
15465.3
-26777.7
-26007.1
-25499.7
-25018.3
-24468
-23854.5
-23174.2
-22431.9
-21620.1
-20739.5
-19786.9
-18765
-17670.5
-20643.4
4138.93
-19408.3
-18104.9
-16739.3
-15280.7
-13550.7
-12406.9
-12406.9
-12406.9
-8981.02
-3425.92
-8981.02
-8981.02
-7033.35
-1947.67
-7033.35
-7033.35
-5418.81
-1614.54
-5418.81
-5418.81
-4174.88
-1243.93
-4174.88
-4174.88
-4174.88
-3209.85
-965.031
-3209.85
-3209.85
-2474.67
-735.181
-3748.17
-14758.2
-2103.52
1022.75
-1658.18
11954.5
-1418.69
6004.09
-1837.63
-5129.92
-2347
-4360.2
-2477.09
-3337.24
-2401.03
-3176.45
-2100.09
-3654.25
-1403.67
-5851.44
-187.348
-8846.97
1237.76
-6363.93
1941.21
5912.19
1856.07
13141.8
1634.86
11869.8
1495.48
8319.61
1363
3695.91
1271.5
3843.5
1633.64
-3556.65
-15217.5
-2328.85
-205.054
-1764.63
11390.3
-1742.89
5982.34
-2650.47
-4222.35
-3431.64
-3579.03
-3654.42
-3114.46
-3584.61
-3246.26
-3194.84
-4044.02
-2299.49
-6746.79
-863.866
-10282.6
922.018
-8149.82
1820.89
5013.31
1555.09
13407.6
1383.32
12041.5
1413.71
8289.23
1443.91
3665.72
1375.99
3911.41
2044.6
-3502.03
-15235.1
-2723.45
-983.629
-2101.01
10767.8
-2393.88
6275.22
-3552.68
-3063.55
-4291.38
-2840.33
-4496.62
-2909.22
-4413.35
-3329.52
-4088.17
-4369.2
-3451.9
-7383.06
-2590.58
-11143.9
-1062.52
-9677.88
649.033
3301.76
910.421
13146.2
872.739
12079.2
1205.48
7956.48
1515.11
3356.09
1511.47
3915.05
2312.14
-3607.08
-14966.7
-3290.12
-1300.59
-2656.01
10133.7
-3064.12
6683.33
-4396.48
-1731.18
-5006.47
-2230.34
-5147.38
-2768.32
-5182.36
-3294.54
-5301.02
-4250.55
-5583.65
-7100.42
-5700.21
-11027.4
-4066.35
-11311.7
-1033.26
268.674
-82.7259
12195.7
37.2872
11959.2
782.411
7211.36
1416.1
2722.4
1640.76
3690.39
2338.37
-3887.26
-14345.9
-4079.57
-1108.28
-3366.14
9420.3
-3703.6
7020.78
-5055.17
-379.609
-5539.93
-1745.58
-5752.74
-2555.5
-6254.54
-2792.74
-7316.91
-3188.18
-8813.13
-5604.2
-9477.08
-10363.4
-7146.83
-13642
-2920.92
-3957.24
-1366.71
10641.5
-1021.8
11614.3
284.579
5904.98
1360.86
1646.11
1681.42
3369.83
2072.12
-4414.91
-13497.1
-4923.47
-599.716
-4178.16
8675
-4304.09
7146.71
-5495.11
811.405
-6014.91
-1225.77
-6657.02
-1913.4
-8106.24
-1343.52
-10390.2
-904.182
-12509.3
-3485.18
-12717.9
-10154.7
-9801.31
-16558.6
-5006.45
-8752.1
-2851.78
8486.81
-2332.7
11095.2
-666.562
4238.84
696.552
282.999
2008.69
2057.69
654.891
-5080.83
-12491.1
-5753.24
72.6954
-4977
7898.76
-4779.8
6949.51
-5710.55
1742.16
-6563.37
-372.948
-8030.37
-446.397
-10493.4
1119.48
-13237.1
1839.57
-14467.3
-2255.04
-13435.6
-11186.4
-10876.7
-19117.5
-7043.71
-12585.1
-4539.88
5982.97
-3668.88
10224.2
-1311.12
1881.09
1051.96
-2080.09
2531.37
578.291
7325.18
-5689.1
-11463.9
-6370.3
753.894
-5549.64
7078.1
-4921.51
6321.37
-5578.18
2398.83
-6914.69
963.56
-9009.55
1648.47
-11506.9
3616.83
-13117.7
3450.36
-12430.4
-2942.38
-10568.5
-13048.2
-9663.07
-20023
-8329.5
-13918.6
-5400.18
3053.65
-3679.03
8503.08
-4151.42
2353.48
-6623.85
392.34
-10244.3
4198.77
12546.2
-6105.32
-10589.3
-6569.09
1217.67
-5622.04
6131.05
-4495.33
5194.66
-4827.83
2731.33
-6395.14
2530.87
-8597.89
3851.22
-10459.2
5478.18
-10431.4
3422.48
-8421.99
-4951.74
-6742.73
-14727.5
-7699.89
-19065.8
-9397.78
-12220.7
-7845.09
1500.96
-8113.43
8771.42
-12583.9
6823.91
-15709.5
3517.98
-15561.4
4050.69
9314.63
-6382.89
-10050.9
-6282.72
1117.51
-5278.76
5127.09
-4311.82
4227.72
-4796.97
3216.48
-6223.67
3957.57
-7810.93
5438.48
-8635.98
6303.22
-7536.17
2322.67
-5678.76
-6809.15
-4910.16
-15496.1
-7134.68
-16841.3
-11559.5
-7795.92
-13128.9
3070.32
-13958.6
9601.11
-15661.9
8527.24
-14693.3
2549.39
-9881.72
-760.881
-615.734
-7025.36
-9680.44
-6527.46
619.604
-6044.3
4643.94
-6307.1
4490.52
-7032.34
3941.72
-7389.81
4315.04
-7449.14
5497.81
-6899.6
5753.68
-5306.77
729.846
-4282.11
-7833.81
-4585.86
-15192.4
-7534.44
-13892.7
-12505.2
-2825.16
-15238.7
5803.86
-16037.1
10399.5
-15896
8386.13
-14363.9
1017.26
-10022.4
-5102.34
-10605.9
-8354.88
-8975.73
-8434.07
698.8
-9060.26
5270.13
-10504
5934.23
-11006.3
4444.07
-9808.62
3117.33
-7840.67
3529.86
-5633.24
3546.25
-3741.56
-1161.84
-3336.12
-8239.24
-4465.41
-14063.1
-8080.41
-10277.7
-12834.3
1928.73
-15673
8642.6
-16871.1
11597.5
-16895.8
8410.81
-15987.1
108.612
-14875.8
-6213.69
-13622.7
-9750.39
-7738.52
-10826.3
1774.67
-12302.3
6746.21
-14035.8
7667.66
-13762.1
4170.4
-11085.1
440.317
-7685.29
130.066
-4556.25
417.207
-2589.31
-3128.77
-2353.12
-8475.44
-3915.83
-12500.4
-7631.46
-6562.07
-11689.5
5986.78
-13982.6
10935.7
-13875.6
11490.5
-10732.6
5267.8
-7833.82
-2790.14
-9694.9
-4352.6
-8082.36
-10481.8
-6148.18
-12199.6
3492.49
-13760.9
8307.49
-14413.8
8320.6
-11979.1
1735.7
-7816.36
-3722.42
-4631.71
-3054.58
-2515.3
-1699.2
-1348.79
-4295.28
-1404.97
-8419.27
-3052.65
-10852.7
-6025.86
-3588.86
-9036.04
8996.95
-10552.1
12451.8
-9185.32
10123.7
-4663.95
746.432
-982.893
-6471.2
623.425
-5958.92
-2059.82
-10290.3
-4452.55
-12267.8
5469.98
-13371.4
9411.07
-12299.5
7248.7
-8348.7
-2215.08
-4467.95
-7603.17
-2171.8
-5350.74
-833.064
-3037.94
-381.606
-4746.74
-794.351
-8006.52
-2270.75
-9376.27
-3973.48
-1886.13
-5684.22
10707.7
-6460.12
13227.7
-4882.37
8545.94
-1586.99
-2548.95
55.4593
-8113.65
1357.67
-7261.13
-4226.02
-9294.45
-2854.64
-11352.9
7528.41
-11948.9
10007.1
-9561.27
4861.06
-5738.03
-6038.33
-3230.69
-10110.5
-1653.06
-6928.37
-379.05
-4311.95
46.228
-5172.02
-450.798
-7509.5
-1594.35
-8232.72
-2098.12
-1382.36
-2545.18
11154.7
-2666.47
13349
-1255.34
7134.81
542.391
-4346.68
1193.38
-8764.64
1484.92
-7552.67
-5008.02
-7812.61
-1494.67
-9880.04
9595.84
-10176.7
10303.8
-7137.09
1821.41
-4066.24
-9109.17
-2630.49
-11546.3
-1451.02
-8107.84
-336.177
-5426.79
20.5652
-5528.76
-322.876
-7166.05
-1013.86
-7541.73
-759.904
-1636.32
-211.434
10606.3
364.378
12773.2
1450.61
6048.58
2064.47
-4960.54
1819.89
-8520.06
1704.12
-7436.9
-5348.79
-6254.08
-404.86
-8198.78
11540.5
-8344.24
10449.2
-5323.16
-1199.67
-3118.19
-11314.1
-2260.49
-12404
-1242.86
-9125.46
-325.868
-6343.79
-1.31533
-5853.31
-142.624
-7024.75
-452.575
-7231.78
71.4919
-2160.39
1130.67
9547.1
2213.08
11690.7
2964.65
5297
2821.69
-4817.58
2213.86
-7912.23
1851.94
-7074.97
-5363.89
-4823.8
487.032
-6730.35
13447.1
-6845.2
10564.1
-4227.17
-3817.7
-2717.8
-12823.5
-2038.77
-13083
-1179.04
-9985.19
-450.759
-7072.08
-69.2477
-6234.82
37.1022
-7131.1
70.8152
-7265.49
607.466
-2697.04
1679.71
8474.85
2898.62
10471.8
3400.5
4795.13
2941.35
-4358.43
2326.71
-7297.59
2016.08
-6764.35
-5210.6
-3711.06
-5030.24
-5132.4
-3540.97
-2574.68
-1911.36
-1224.13
-584.352
-110.684
182.981
398.928
846.004
1678.22
2626.69
2985.26
2762.75
2415.11
2194.97
214.979
-1410.22
428.824
-1951.91
563.024
-1646.1
660.128
-1408.45
764.455
-1287.79
888.395
-1365.86
926.399
-1204.83
932.986
-1058.41
924.094
-959.813
907.005
-902.792
878.973
-854.84
837.464
-807.194
778.069
-745.627
703.698
-681.598
609.182
-591.459
495.885
-497.35
363.502
-406.501
235.338
-420.722
132.188
-593.095
-705.512
85.0545
-1495.27
71.2426
-1938.1
87.9706
-1662.83
99.8375
-1420.31
136.634
-1324.59
169.984
-1399.21
203.665
-1238.51
218.22
-1072.96
223.787
-965.382
226.29
-905.296
225.085
-853.636
219.097
-801.207
205.334
-731.865
189.283
-665.548
174.906
-577.083
162.603
-485.049
145.538
-389.437
124.619
-399.804
87.6988
-556.175
-617.814
30.4383
-1525.71
49.1804
-1956.84
114.134
-1727.79
140.721
-1446.9
181.977
-1365.85
207.263
-1424.5
251.006
-1282.25
279.312
-1101.27
291.633
-977.704
295.924
-909.589
292.385
-850.098
282.646
-791.47
265.244
-714.465
242.271
-642.576
223.712
-558.525
214.117
-475.455
206.476
-381.797
185.273
-378.602
120.459
-491.362
-497.354
43.862
-1569.58
59.8938
-1972.87
99.6559
-1767.55
103.649
-1450.9
140.639
-1402.84
180.57
-1464.43
186.15
-1287.83
194.869
-1109.99
211.074
-993.909
230.058
-928.574
240.035
-860.076
240.203
-791.639
230.528
-704.79
210.84
-622.89
187.843
-535.529
174.179
-461.791
172.455
-380.074
157.65
-363.798
94.2667
-427.98
-403.087
38.4377
-1608.02
44.2567
-1978.69
71.6846
-1794.98
71.3874
-1450.6
107.462
-1438.92
149.975
-1506.95
137.076
-1274.94
149.403
-1122.32
179.656
-1024.16
212.194
-961.113
231.355
-879.238
237.836
-798.122
233.828
-700.783
219.19
-608.253
193.377
-509.717
165.743
-434.158
147.445
-361.776
121.14
-337.493
56.612
-363.453
-346.476
36.1966
-1644.22
34.7685
-1977.27
56.9729
-1817.19
62.7353
-1456.37
92.2441
-1468.43
124.353
-1539.05
93.2437
-1243.83
107.823
-1136.9
137.868
-1054.21
166.636
-989.882
182.119
-894.723
187.249
-803.253
183.61
-697.145
169.96
-594.603
139.032
-478.79
94.359
-389.485
48.1144
-315.532
3.92766
-293.307
-32.197
-327.329
-378.673
30.4047
-1674.62
16.4819
-1963.35
32.3635
-1833.07
43.1222
-1467.13
59.6809
-1484.99
74.2553
-1553.63
47.6188
-1217.19
64.7233
-1154
85.8127
-1075.3
101.339
-1005.41
110.921
-904.306
115.247
-807.579
117.504
-699.403
110.793
-587.893
83.6941
-451.692
37.4019
-343.193
-20.0507
-258.08
-74.7717
-238.586
-81.1906
-320.911
-459.863
34.6642
-1709.29
13.016
-1941.7
25.1523
-1845.21
44.9926
-1486.97
53.3559
-1493.35
52.8978
-1553.17
47.0666
-1211.36
58.5109
-1165.45
68.8645
-1085.65
73.9962
-1010.54
83.7882
-914.098
91.4321
-815.223
103.88
-711.85
112.339
-596.352
105.056
-444.409
79.1961
-317.334
42.0091
-220.893
-0.77434
-195.803
-20.0144
-301.671
-479.878
38.8467
-1748.14
14.4007
-1917.26
17.6302
-1848.44
47.223
-1516.57
50.5081
-1496.64
34.8798
-1537.55
53.6282
-1230.11
60.8708
-1172.69
70.1217
-1094.91
73.0742
-1013.5
84.0155
-925.041
92.3408
-823.551
105.977
-725.488
123.053
-613.43
141.423
-462.78
152.139
-328.051
158.654
-227.409
150.093
-187.242
103.911
-255.49
-375.967
36.395
-1784.53
22.4819
-1903.34
13.1444
-1839.1
61.8692
-1565.29
71.0028
-1505.77
37.946
-1504.49
82.53
-1274.7
97.5998
-1187.76
116.97
-1114.28
125.515
-1022.04
138.665
-938.191
147.751
-832.637
156.345
-734.082
168.389
-625.474
195.231
-489.622
228.92
-361.74
260.974
-259.462
268.809
-195.077
192.241
-178.92
-183.726
28.3027
-1812.84
35.1783
-1910.22
5.14756
-1809.07
63.4282
-1623.57
94.4918
-1536.84
47.5645
-1457.57
108.957
-1336.09
140.567
-1219.37
173.051
-1146.76
196.794
-1045.79
221.942
-963.338
244.468
-855.165
263.254
-752.867
280.977
-643.197
315.332
-523.977
356.814
-403.221
381.761
-284.409
363.606
-176.921
232.863
-48.1752
49.1367
18.9196
-1831.76
35.2991
-1926.6
21.5185
-1795.29
38.285
-1640.34
58.9023
-1557.45
35.9522
-1434.61
66.5352
-1366.67
94.5511
-1247.39
114.305
-1166.51
136.248
-1067.73
156.578
-983.667
178.18
-876.766
195.383
-770.069
206.733
-654.547
215.728
-532.971
189.828
-377.319
101.308
-195.888
10.5616
-86.1726
-36.3763
-1.23345
12.7604
16.8641
-1848.62
23.9518
-1933.69
35.6279
-1806.97
28.3831
-1633.1
30.5901
-1559.66
25.9075
-1429.93
11.9055
-1352.67
4.76581
-1240.25
-10.2381
-1151.51
-21.986
-1055.98
-37.3877
-968.265
-46.9167
-867.237
-54.353
-762.633
-63.0837
-645.816
-87.4371
-508.617
-141.674
-323.082
-238.871
-98.6909
-287.843
-37.1992
-190.702
-98.3734
-177.942
59.4872
-1908.11
65.2589
-1939.46
86.2457
-1827.95
104.941
-1651.79
128.409
-1583.13
145.657
-1447.18
157.147
-1364.16
172.648
-1255.75
185.352
-1164.21
199.46
-1070.09
210.776
-979.58
226.823
-883.282
243.897
-779.706
257.84
-659.758
263.673
-514.45
279.982
-339.39
317.135
-135.844
321.45
-41.513
235.584
-12.506
57.6427
96.0044
-2004.11
89.0101
-1932.46
123.455
-1862.4
158.782
-1687.11
202.977
-1627.32
252.309
-1496.51
303.657
-1415.51
362.248
-1314.34
427.48
-1229.44
497.995
-1140.6
570.191
-1051.78
638.462
-951.551
688.234
-829.477
700.776
-672.299
668.019
-481.691
610.117
-281.487
565.283
-91.0083
444.153
79.6175
256.031
175.618
313.674
43.773
-2047.88
4.71573
-1893.4
4.15609
-1861.83
9.00235
-1691.96
16.3943
-1634.71
31.4026
-1511.51
51.5381
-1435.64
78.4433
-1341.24
111.651
-1262.65
150.499
-1179.45
191.295
-1092.57
223.107
-983.36
226.538
-832.904
181.009
-626.766
89.0438
-389.72
11.2555
-203.689
27.1935
-106.93
61.1513
45.6732
15.4728
221.305
329.147
-43.9216
-2003.96
-118.309
-1819.01
-172.245
-1807.9
-215.016
-1649.18
-258.561
-1591.16
-287.669
-1482.4
-316.702
-1406.6
-336.795
-1321.15
-353.742
-1245.7
-365.564
-1167.62
-374.814
-1083.32
-382.328
-975.844
-387.735
-827.495
-382.326
-632.173
-351.433
-420.611
-296.722
-258.396
-256.119
-147.53
-210.122
-0.321514
-160.105
171.29
169.042
-167.334
-1836.62
-359.002
-1627.34
-515.879
-1651.02
-639.588
-1525.47
-753.267
-1477.48
-840.271
-1395.4
-915.871
-1331
-975.067
-1261.95
-1023.24
-1197.53
-1058.36
-1132.49
-1076.91
-1064.77
-1065.74
-987.016
-1001.91
-891.329
-859.616
-774.463
-637.735
-642.492
-395.635
-500.496
-208.147
-335.015
-89.7636
-118.701
-6.23266
87.7628
162.81
-196.218
-1640.4
-441.286
-1382.28
-697.689
-1394.61
-915.249
-1307.91
-1124.72
-1268.02
-1303.9
-1216.21
-1462.16
-1172.75
-1595.19
-1128.91
-1705.45
-1087.27
-1791.59
-1046.35
-1850.27
-1006.09
-1871.86
-965.42
-1840.68
-922.512
-1741.57
-873.571
-1570.4
-813.665
-1331.83
-739.063
-1024.02
-642.825
-640.437
-502.282
-251.694
-300.978
-88.8846
-665.402
-1072.68
-1492.29
-1825.2
-2118.22
-2359.43
-2557.18
-2711.09
-2823.36
-2894.72
-2925.8
-2916.22
-2863.73
-2762.3
-2600.97
-2365.03
-2032.86
-1560.14
-886.115
-677.891
1652.89
-1101.03
1398.14
-1536.6
1410.57
-1887.86
1326.26
-2200.89
1288.04
-2464.22
1238.33
-2685.84
1196.62
-2865.12
1154.28
-3003.65
1113.54
-3101.73
1073.08
-3159.89
1033.17
-3177.95
993.057
-3152.63
949.681
-3072.66
895.036
-2914.54
816.873
-2645.33
705.796
-2231.35
561.017
-1644.07
387.721
-884.082
215.015
90.9182
-221.138
1874.04
-483.852
1660.86
-760.416
1687.14
-994.573
1560.42
-1219.67
1513.14
-1411.62
1430.28
-1580.83
1365.83
-1722.05
1295.5
-1838.11
1229.6
-1928.41
1163.38
-1994.2
1098.96
-2034.76
1033.62
-2044.7
959.621
-2008.13
858.46
-1897.26
706.013
-1676.67
485.199
-1327.69
212.045
-887.286
-52.6831
-446.991
-225.278
-356.072
-136.576
2010.62
-304.432
1828.72
-431.903
1814.61
-516.462
1644.99
-588.543
1585.22
-628.236
1469.97
-650.531
1388.13
-649.795
1294.77
-629.361
1209.17
-588.876
1122.9
-529.227
1039.31
-451.489
955.883
-358.895
867.031
-258.731
758.3
-164.031
611.318
-89.5501
410.724
-34.8686
157.381
22.9581
-110.493
-19.5535
-182.758
-375.626
45.872
1964.74
33.5245
1841.07
54.8704
1793.27
94.7815
1605.08
137.871
1542.13
202.466
1405.38
276.491
1314.1
363.958
1207.31
460.81
1112.32
567.428
1016.28
682.121
924.622
803.74
834.265
925.747
745.026
1029.72
654.33
1083.35
557.691
1050.94
443.13
881.151
327.173
545.255
225.406
260.238
102.263
-115.388
73.7849
1890.96
104.342
1810.51
151.24
1746.37
190.825
1565.49
228.388
1504.57
255.649
1378.12
270.315
1299.44
291.001
1186.62
314.274
1089.05
338.028
992.534
362.071
900.584
390.041
806.3
442.697
692.375
543.007
554.025
690.807
409.896
760.075
373.865
722.097
365.154
564.413
383.093
316.736
349.946
201.348
-83.0501
1974.01
-154.697
1882.16
-234.008
1825.68
-334.266
1665.75
-435.3
1605.61
-550.725
1493.54
-679.905
1428.62
-810.127
1316.85
-941.694
1220.62
-1058.8
1109.63
-1165.6
1007.39
-1241.31
882.01
-1300.06
751.123
-1325.44
579.403
-1414.56
499.016
-1160.04
119.355
-895.834
100.946
-586.595
73.8572
-281.52
44.8761
-80.1724
-15.4728
1989.48
-58.8077
1925.49
-81.294
1848.17
-106.995
1691.45
-132.693
1631.3
-167.23
1528.08
-199.477
1460.86
-223.662
1341.03
-235.41
1232.36
-218.479
1092.7
-167.33
956.236
-95.7334
810.411
-64.7362
720.126
-146.496
661.162
-443.02
795.546
-614.035
290.381
-610.006
96.9257
-481.339
-54.7995
-346.146
-90.3045
-426.319
106.75
1882.73
49.9565
1982.28
55.6484
1842.47
64.802
1682.29
86.257
1609.85
123.627
1490.71
178.243
1406.25
222.253
1297.01
248.244
1206.37
254.068
1086.87
249.337
960.964
242.691
817.049
284.637
678.179
332.02
613.776
452.715
674.852
252.215
490.881
93.7829
255.36
-71.3051
110.292
-108.762
-52.8428
-535.081
189.722
1693.01
157.667
2014.34
177.712
1822.43
216.109
1643.89
273.508
1552.45
347.987
1416.23
441.908
1312.33
536.484
1202.43
620.866
1121.98
677.969
1029.76
705.661
933.273
699.727
822.983
669.815
708.093
694.689
588.902
841.479
528.063
847.683
484.678
724.186
378.859
559.102
275.378
403.259
103.004
-131.822
170.23
1522.77
170.714
2013.85
187.508
1805.63
220.238
1611.16
266.229
1506.45
318.158
1364.29
377.189
1253.29
439.902
1139.72
501.038
1060.85
549.627
981.172
579.971
902.928
592.375
810.576
592.959
707.509
620.6
561.261
678.123
470.54
700.59
462.211
652.388
427.061
547.655
380.111
337.629
313.032
205.807
79.9561
1442.82
91.4967
2002.31
103.775
1793.35
117.3
1597.63
136.415
1487.34
155.221
1345.49
172.687
1235.83
196.85
1115.55
220.479
1037.22
244.222
957.428
264.971
882.178
290.14
785.406
323.907
673.741
352.778
532.389
371.523
451.794
395.806
437.928
399.74
423.128
351.969
427.882
219.762
445.238
425.569
-1.50159
1444.31
9.73251
1991.07
20.6232
1782.46
18.6401
1599.61
16.0298
1489.95
2.92143
1358.59
-15.8431
1254.59
-25.5007
1125.21
-26.8018
1038.51
-17.0437
947.666
2.86829
862.263
36.9689
751.302
76.7706
633.937
94.1641
514.993
121.526
424.431
166.356
393.096
197.512
391.971
186.893
438.5
121.853
510.277
547.422
-20.6858
1465
-8.62386
1979.01
6.41922
1767.41
2.33364
1603.7
-1.69023
1493.97
-18.3804
1375.28
-42.7072
1278.91
-69.3927
1151.89
-80.8615
1049.98
-76.9522
943.755
-58.1593
843.469
-36.238
729.38
-23.0777
620.775
-24.0164
515.93
-7.55487
407.968
19.0346
366.505
45.9651
365.039
53.0537
431.41
31.2649
532.065
578.687
3.51441
1461.48
15.9582
1966.56
39.3551
1744.01
45.6734
1597.38
56.0147
1483.63
65.142
1366.15
72.8045
1271.25
66.4811
1158.21
63.7085
1052.75
64.4213
943.04
69.3844
838.504
63.6875
735.074
51.1631
633.298
37.3601
529.731
25.31
420.016
23.5588
368.255
37.3218
351.275
38.6874
430.044
11.1359
559.615
589.823
18.9882
1442.49
31.6674
1953.88
66.8269
1708.85
81.6455
1582.56
96.6077
1468.66
115.555
1347.2
142.798
1244
163.442
1137.57
175.237
1040.95
174.414
943.862
165.492
847.424
149.534
751.031
138.639
644.191
125.325
543.044
109.849
435.491
107.311
370.792
118.432
340.153
112.859
435.616
59.2732
613.199
649.096
1.32908
1441.16
6.10225
1949.1
45.0228
1669.93
55.4089
1572.17
60.2746
1463.8
64.2393
1343.24
78.1778
1230.06
96.4112
1119.33
110.294
1027.07
111.536
942.618
108.582
850.376
111.248
748.363
120.665
634.773
123.544
540.163
128.528
430.505
143.314
356.005
165.624
317.842
167.699
433.54
105.841
675.057
754.937
-7.21443
1448.37
-1.94351
1943.83
41.3604
1626.63
49.0344
1564.5
46.2031
1466.63
36.6523
1352.79
30.6785
1236.04
27.9459
1122.06
32.1615
1022.85
37.5461
937.233
47.9657
839.956
63.8576
732.471
77.1911
621.439
84.4114
532.943
88.5726
426.344
96.9261
347.651
116.503
298.265
133.251
416.791
95.721
712.586
850.658
-7.67833
1456.05
-2.35959
1938.51
54.0949
1570.17
76.938
1541.65
90.2288
1453.34
99.58
1343.44
105.645
1229.97
103.095
1124.61
105.066
1020.88
113.744
928.555
127.056
826.643
135.978
723.549
136.527
620.889
132.056
537.413
119.569
438.83
108.399
358.82
108.181
298.483
110.001
414.972
78.4511
744.135
929.109
86.6425
1369.41
72.519
1952.63
68.2594
1574.43
101.429
1508.48
125.732
1429.03
139.26
1329.91
155.234
1214
162.855
1116.99
165.181
1018.56
166.542
927.194
162.606
830.58
147.844
738.311
122.504
646.229
92.5907
567.326
53.0436
478.378
13.1141
398.749
-12.8809
324.478
0.207666
401.884
16.537
727.806
945.646
225.635
448.269
564.081
707.025
832.644
927.45
975.401
997.87
994.568
969.165
919.103
845.672
749.55
636.578
501.432
349.91
192.995
87.448
44.7319
)
;

boundaryField
{
    outletWall
    {
        type            calculated;
        value           nonuniform List<scalar> 
60
(
-2474.67
-1097.33
-3752
-3563.43
-8180.23
-11648.6
-13056.7
-6615.64
4938.82
7630.65
5155.02
3353.31
3100.39
3467.32
4869.57
5548.86
-6243.58
-12399.8
-2667.4
13629.4
3200.43
3931.91
5164.27
6452.64
7696.54
8594.7
8891.41
8513.18
7650.17
6654.93
5844.43
5230.76
4661.92
4074.75
3566.19
3266.41
3338.67
3519.62
4016.03
4876.91
632.135
-5086.32
-6544.21
-6949.95
-4135.92
4436.56
9523.37
7642.63
-3144.12
-7481.44
-7424.76
-6708.49
-7711.85
-10672.4
-13746.3
-13789.8
-5409.13
10666.3
14766.3
997.664
)
;
    }
    fineWalls
    {
        type            calculated;
        value           uniform 0;
    }
    fineFrontAndBack
    {
        type            calculated;
        value           nonuniform List<scalar> 
960
(
-6.61497e-13
-1.92147e-12
4.22671e-14
-1.48054e-13
-1.70783e-12
-3.86119e-13
-3.47505e-13
-3.78335e-13
-2.10835e-12
-3.09685e-13
-1.25753e-13
-2.50793e-12
-8.98186e-13
-9.12272e-13
-7.81613e-12
-1.84735e-12
-1.87905e-12
-8.20068e-12
-1.36095e-12
-1.76829e-12
-1.213e-13
-4.37112e-13
-4.77486e-13
-5.16456e-13
-5.40023e-13
-7.08811e-13
-8.91241e-12
-9.20494e-13
-9.62782e-13
-1.01166e-12
-1.06503e-12
-1.10921e-12
-1.17194e-12
-1.23969e-12
-1.31163e-12
-1.4061e-12
-1.4901e-12
-1.58347e-12
-1.47206e-12
-1.10707e-12
-2.11283e-11
-2.25446e-12
-1.88376e-12
-1.71128e-12
1.74155e-12
-7.80222e-13
2.07592e-13
1.43402e-11
3.43758e-10
2.97707e-11
1.38629e-11
4.36852e-11
8.28149e-12
1.02725e-11
6.60921e-12
1.50472e-11
2.48459e-12
2.75712e-12
3.07304e-12
2.11724e-11
8.39113e-13
1.09257e-12
1.38217e-12
1.19207e-12
1.0034e-12
8.61731e-13
7.49746e-13
6.46442e-13
5.45883e-13
4.65488e-13
3.88451e-13
3.19225e-13
2.56462e-13
-8.83148e-12
-4.08013e-14
-2.15682e-13
-2.45813e-13
-3.48858e-13
-4.65211e-13
-7.45609e-13
-3.93838e-12
-4.12678e-12
-2.30414e-11
-3.0661e-12
-3.31657e-12
-1.7675e-11
-2.10388e-12
-2.38851e-12
-1.31273e-11
-1.26388e-12
-1.55741e-12
-9.60626e-12
-8.10157e-13
-1.10732e-12
-1.236e-12
-8.39078e-12
-4.50456e-13
-7.68097e-13
-4.82439e-12
4.58413e-13
6.61845e-12
-2.24321e-12
-6.0044e-12
-7.22977e-12
-3.78224e-12
1.05246e-11
2.12917e-11
2.41409e-11
1.78258e-11
3.78617e-12
-9.70582e-12
-1.76689e-11
-2.30876e-11
-3.26299e-11
-3.8091e-11
-4.63967e-11
-5.28016e-11
-5.14598e-11
-5.16276e-11
1.07988e-11
4.64298e-13
-6.89762e-12
-6.93987e-12
1.31107e-11
3.29184e-11
3.2863e-11
2.65979e-11
1.14998e-11
-7.33449e-12
-1.86195e-11
-1.70077e-11
-1.74096e-11
-3.00266e-11
-3.7572e-11
-4.61078e-11
-5.27677e-11
-5.19028e-11
-5.23874e-11
1.45312e-11
2.65311e-12
-9.72558e-12
-5.95179e-12
3.05981e-11
3.97799e-11
1.58755e-11
-6.0995e-12
-2.55749e-11
-3.6012e-11
-3.04776e-11
-1.66899e-11
-1.46159e-11
-2.64003e-11
-3.63301e-11
-4.50761e-11
-5.12805e-11
-5.15082e-11
-5.35079e-11
1.8335e-11
2.30276e-12
-1.17496e-11
-3.69928e-12
3.68103e-11
1.85993e-11
-2.90475e-11
-6.08673e-11
-7.54762e-11
-6.53983e-11
-3.53525e-11
-1.56359e-11
-1.46923e-11
-2.22495e-11
-3.45196e-11
-4.39405e-11
-4.98635e-11
-5.01254e-11
-5.35286e-11
1.9025e-11
-7.29729e-13
-1.3497e-11
-2.10798e-12
1.75984e-11
-3.68516e-11
-9.36816e-11
-1.15011e-10
-1.07612e-10
-7.01486e-11
-3.03112e-11
-1.6693e-11
-2.00764e-11
-1.82191e-11
-3.30023e-11
-4.33345e-11
-4.76924e-11
-4.84837e-11
-5.1273e-11
1.60426e-11
-7.49851e-12
-1.44882e-11
-3.5819e-12
-2.34009e-11
-1.06526e-10
-1.42847e-10
-1.35972e-10
-9.87716e-11
-5.02364e-11
-2.27213e-11
-2.10016e-11
-2.64196e-11
-1.89459e-11
-3.15712e-11
-4.65193e-11
-5.26466e-11
-4.72197e-11
-5.27829e-11
1.24502e-11
-1.47861e-11
-1.63216e-11
-1.48285e-11
-7.74647e-11
-1.58657e-10
-1.49888e-10
-1.0739e-10
-5.60906e-11
-2.38794e-11
-1.78264e-11
-1.96578e-11
-2.91674e-11
-3.47299e-11
-3.49073e-11
-4.56087e-11
-4.58508e-11
-5.18351e-11
-6.13765e-11
1.05909e-11
-2.04235e-11
-1.86538e-11
-4.07983e-11
-1.30667e-10
-1.80835e-10
-1.33759e-10
-7.37075e-11
-3.24535e-11
-1.5764e-11
-1.01328e-11
-9.02152e-12
-2.32208e-11
-4.33703e-11
-4.24902e-11
-4.03044e-11
-2.16412e-11
-1.56416e-11
1.23774e-12
1.1436e-11
-3.11876e-11
-2.99523e-11
-7.3488e-11
-1.73184e-10
-1.9924e-10
-1.33195e-10
-6.17065e-11
-2.12204e-11
-3.04929e-12
6.13262e-12
6.16046e-13
-1.3839e-11
-3.71559e-11
-4.1464e-11
-2.00557e-11
3.19962e-12
1.02479e-11
1.81302e-11
1.57648e-11
-4.82522e-11
-6.37138e-11
-1.02531e-10
-1.71574e-10
-1.78412e-10
-1.22782e-10
-4.99107e-11
-8.89497e-12
1.51108e-11
1.73225e-11
1.9792e-12
-2.87512e-12
-1.99419e-11
-2.23259e-11
-2.39947e-12
1.70871e-11
2.73493e-11
4.12947e-11
2.25084e-11
-4.01423e-11
-7.38641e-11
-7.74216e-11
-8.5341e-11
-8.53307e-11
-6.45501e-11
-3.2251e-11
3.78005e-12
2.33918e-11
1.39851e-11
2.29413e-12
7.81708e-12
5.11946e-12
4.65371e-12
1.36112e-11
2.02726e-11
3.74323e-11
1.45121e-10
2.48108e-11
-1.51486e-11
-3.66022e-11
-1.25836e-11
4.95471e-12
-2.85055e-12
-1.15798e-11
-7.3944e-12
1.49894e-11
2.43283e-11
4.76913e-12
-4.26456e-12
9.75187e-12
9.85355e-12
7.10269e-12
-4.80616e-12
-2.2143e-11
-2.71807e-11
-2.26907e-11
2.66573e-11
7.83529e-12
8.09289e-13
2.6956e-11
4.40211e-11
3.80548e-11
3.23804e-11
3.27956e-11
3.7584e-11
2.56414e-11
-7.82116e-12
-8.89694e-12
6.5814e-12
2.88029e-13
-3.96293e-12
-9.63695e-12
-6.99312e-12
-6.09288e-12
-2.01085e-11
2.94591e-11
2.78896e-11
2.05138e-11
3.56548e-11
3.39261e-11
1.25972e-11
1.79358e-11
4.15316e-11
3.40383e-11
9.15799e-12
-2.33051e-11
-1.36733e-11
3.11332e-12
-7.2955e-12
-1.143e-11
-5.75854e-12
5.78772e-12
5.96361e-12
7.29659e-12
2.70064e-11
4.23395e-11
2.84015e-11
2.27161e-11
-1.14636e-11
-4.55492e-11
-5.06076e-11
-4.18881e-11
-2.63707e-11
-2.6747e-11
-3.54484e-11
-1.78553e-11
-2.31821e-12
-9.79318e-12
-1.22048e-11
-6.69218e-13
6.67123e-12
2.80367e-12
5.65681e-12
1.63066e-11
4.6493e-11
3.01999e-11
9.00997e-12
-2.1294e-11
-2.92549e-11
-4.03593e-11
-6.04563e-11
-6.09407e-11
-5.14788e-11
-3.80685e-11
-1.96939e-11
-6.75367e-12
-8.44108e-12
-1.22217e-11
2.84296e-13
2.32601e-12
1.38869e-12
2.16365e-13
2.23993e-12
4.15265e-11
2.97818e-11
4.21408e-12
-1.03781e-11
-1.22644e-11
-2.63872e-11
-4.43015e-11
-5.28397e-11
-4.97383e-11
-3.49751e-11
-1.93733e-11
-9.72268e-12
-4.94546e-12
-9.27117e-12
-1.41371e-12
1.50745e-12
-1.38189e-13
-1.32116e-12
-9.14565e-12
2.86043e-11
2.96002e-11
7.41861e-12
1.4333e-12
-6.88079e-12
-2.2873e-11
-3.55576e-11
-3.97319e-11
-4.08367e-11
-3.13303e-11
-1.80768e-11
-1.17026e-11
-3.49809e-12
-4.10337e-12
3.26369e-13
2.94232e-13
-8.91469e-13
-1.69918e-12
-1.336e-11
1.52794e-11
3.02422e-11
1.75304e-11
1.06505e-11
-4.4817e-12
-2.05253e-11
-3.2464e-11
-3.64077e-11
-3.82787e-11
-3.05947e-11
-1.64003e-11
-1.17848e-11
-4.32337e-12
-1.70166e-12
-3.46803e-13
-7.27895e-13
-1.10774e-12
-1.70395e-12
-1.25275e-11
5.45747e-12
2.70081e-11
2.60818e-11
1.43427e-11
-3.13636e-12
-1.87447e-11
-3.03263e-11
-3.4523e-11
-3.74813e-11
-2.94773e-11
-1.55126e-11
-9.31612e-12
-4.68438e-12
-1.85025e-12
-1.13161e-12
-1.054e-12
-1.14618e-12
-1.88902e-12
6.61497e-13
1.92147e-12
-4.22671e-14
1.48054e-13
1.70783e-12
3.86119e-13
3.47505e-13
3.78335e-13
2.10835e-12
3.09685e-13
1.25753e-13
2.50793e-12
8.98186e-13
9.12272e-13
7.81613e-12
1.84735e-12
1.87905e-12
8.20068e-12
1.36095e-12
1.76829e-12
1.213e-13
4.37112e-13
4.77486e-13
5.16456e-13
5.40023e-13
7.08811e-13
8.91241e-12
9.20494e-13
9.62782e-13
1.01166e-12
1.06503e-12
1.10921e-12
1.17194e-12
1.23969e-12
1.31163e-12
1.4061e-12
1.4901e-12
1.58347e-12
1.47206e-12
1.10707e-12
2.11283e-11
2.25446e-12
1.88376e-12
1.71128e-12
-1.74155e-12
7.80222e-13
-2.07592e-13
-1.43402e-11
-3.43758e-10
-2.97707e-11
-1.38629e-11
-4.36852e-11
-8.28149e-12
-1.02725e-11
-6.60921e-12
-1.50472e-11
-2.48459e-12
-2.75712e-12
-3.07304e-12
-2.11724e-11
-8.39113e-13
-1.09257e-12
-1.38217e-12
-1.19207e-12
-1.0034e-12
-8.61731e-13
-7.49746e-13
-6.46442e-13
-5.45883e-13
-4.65488e-13
-3.88451e-13
-3.19225e-13
-2.56462e-13
8.83148e-12
4.08013e-14
2.15682e-13
2.45813e-13
3.48858e-13
4.65211e-13
7.45609e-13
3.93838e-12
4.12678e-12
2.30414e-11
3.0661e-12
3.31657e-12
1.7675e-11
2.10388e-12
2.38851e-12
1.31273e-11
1.26388e-12
1.55741e-12
9.60626e-12
8.10157e-13
1.10732e-12
1.236e-12
8.39078e-12
4.50456e-13
7.68097e-13
4.82439e-12
-4.58413e-13
-6.61845e-12
2.24321e-12
6.0044e-12
7.22977e-12
3.78224e-12
-1.05246e-11
-2.12917e-11
-2.41409e-11
-1.78258e-11
-3.78617e-12
9.70582e-12
1.76689e-11
2.30876e-11
3.26299e-11
3.8091e-11
4.63967e-11
5.28016e-11
5.14598e-11
5.16276e-11
-1.07988e-11
-4.64298e-13
6.89762e-12
6.93987e-12
-1.31107e-11
-3.29184e-11
-3.2863e-11
-2.65979e-11
-1.14998e-11
7.33449e-12
1.86195e-11
1.70077e-11
1.74096e-11
3.00266e-11
3.7572e-11
4.61078e-11
5.27677e-11
5.19028e-11
5.23874e-11
-1.45312e-11
-2.65311e-12
9.72558e-12
5.95179e-12
-3.05981e-11
-3.97799e-11
-1.58755e-11
6.0995e-12
2.55749e-11
3.6012e-11
3.04776e-11
1.66899e-11
1.46159e-11
2.64003e-11
3.63301e-11
4.50761e-11
5.12805e-11
5.15082e-11
5.35079e-11
-1.8335e-11
-2.30276e-12
1.17496e-11
3.69928e-12
-3.68103e-11
-1.85993e-11
2.90475e-11
6.08673e-11
7.54762e-11
6.53983e-11
3.53525e-11
1.56359e-11
1.46923e-11
2.22495e-11
3.45196e-11
4.39405e-11
4.98635e-11
5.01254e-11
5.35286e-11
-1.9025e-11
7.29729e-13
1.3497e-11
2.10798e-12
-1.75984e-11
3.68516e-11
9.36816e-11
1.15011e-10
1.07612e-10
7.01486e-11
3.03112e-11
1.6693e-11
2.00764e-11
1.82191e-11
3.30023e-11
4.33345e-11
4.76924e-11
4.84837e-11
5.1273e-11
-1.60426e-11
7.49851e-12
1.44882e-11
3.5819e-12
2.34009e-11
1.06526e-10
1.42847e-10
1.35972e-10
9.87716e-11
5.02364e-11
2.27213e-11
2.10016e-11