/*--------------------------------*- C++ -*----------------------------------*\
| =========                 |                                                 |
| \\      /  F ield         | OpenFOAM: The Open Source CFD Toolbox           |
|  \\    /   O peration     | Version:  4.1                                   |
|   \\  /    A nd           | Web:      www.OpenFOAM.org                      |
|    \\/     M anipulation  |                                                 |
\*---------------------------------------------------------------------------*/
FoamFile
{
    version     2.0;
    format      ascii;
    class       volVectorField;
    location    "20";
    object      U;
}
// * * * * * * * * * * * * * * * * * * * * * * * * * * * * * * * * * * * * * //

dimensions      [0 1 -1 0 0 0 0];

internalField   nonuniform List<vector> 
1280
(
(-4.78046e-16 -0.185083 -1.73263)
(-3.29468e-16 0.459498 -1.65497)
(3.05454e-17 0.341929 -0.866407)
(-1.06994e-16 0.499412 -0.918873)
(-2.90262e-16 0.946536 -1.48608)
(-2.79038e-16 0.881562 -1.10697)
(-2.51132e-16 1.15843 -1.10831)
(-2.77241e-16 1.20097 -1.04147)
(-3.45845e-16 1.71215 -1.5712)
(-2.23802e-16 1.61479 -1.18947)
(-7.96228e-17 1.83894 -1.07868)
(-5.02324e-16 2.35413 -1.78492)
(-6.57862e-16 2.22283 -1.4145)
(-6.76729e-16 2.5 -1.30066)
(-1.44934e-15 3.19021 -2.1257)
(-1.33503e-15 2.80575 -1.7485)
(-1.35794e-15 3.3812 -1.50941)
(-1.39378e-15 3.10388 -3.11606)
(-1.00489e-15 4.58115 -1.38543)
(-1.27789e-15 2.7521 -5.09335)
(-4.9764e-16 4.29849 2.12828)
(-1.79328e-15 4.46316 7.44501)
(-1.95892e-15 4.32683 8.94714)
(-2.11879e-15 4.81333 9.57958)
(-2.21548e-15 4.78602 9.60899)
(-2.90794e-15 5.22487 10.7486)
(-1.87877e-15 4.14783 8.29284)
(-3.77639e-15 8.03422 12.8986)
(-3.94987e-15 8.2291 12.8948)
(-4.15042e-15 8.21095 12.961)
(-4.36933e-15 8.26278 13.0675)
(-4.55061e-15 8.26309 13.2052)
(-4.80795e-15 8.28855 13.3043)
(-5.08591e-15 8.22622 13.3877)
(-5.38104e-15 8.23446 13.3519)
(-5.7686e-15 8.0822 13.2565)
(-6.11324e-15 8.08909 13.0786)
(-6.4963e-15 7.82625 13.1002)
(-6.03924e-15 7.87182 13.6264)
(-4.54183e-15 7.67963 14.4119)
(-3.67768e-15 8.92102 14.7839)
(-1.81081e-15 5.35926 9.65308)
(-1.51306e-15 4.15167 9.28355)
(-1.35579e-15 3.20803 9.16633)
(4.76702e-16 1.10181 8.03097)
(-6.26684e-16 0.253349 1.76011)
(1.66741e-16 -0.228915 -1.20191)
(1.15182e-14 0.540588 -2.91023)
(6.05194e-14 0.650259 -5.27964)
(2.38814e-14 -0.637072 -3.18159)
(1.11657e-14 0.611412 -2.96897)
(7.60404e-15 -0.623302 -5.22232)
(6.6518e-15 -0.578078 -3.0067)
(8.25098e-15 0.265717 -1.5439)
(5.3086e-15 -0.223301 1.45135)
(2.61919e-15 -1.11085 8.38506)
(2.01414e-15 -3.3043 9.63507)
(2.21253e-15 -4.34009 9.54532)
(2.46831e-15 -5.53723 9.72767)
(3.67369e-15 -8.608 14.9687)
(3.44252e-15 -7.83218 14.9158)
(4.48233e-15 -8.0322 13.7382)
(5.67042e-15 -7.94556 12.8568)
(4.89056e-15 -8.28141 12.8847)
(4.11653e-15 -8.25858 13.0522)
(3.53531e-15 -8.44849 13.1631)
(3.07588e-15 -8.45426 13.3033)
(2.65207e-15 -8.5619 13.4156)
(2.23952e-15 -8.57082 13.5513)
(1.90969e-15 -8.61935 13.6486)
(1.59364e-15 -8.59524 13.7183)
(1.30964e-15 -8.58054 13.7028)
(1.05215e-15 -8.46677 13.5778)
(-1.86171e-15 -4.40068 8.32734)
(-1.6739e-16 -4.8674 10.9635)
(-8.84848e-16 -4.59052 10.3188)
(-1.00846e-15 -4.51931 9.70839)
(-1.43121e-15 -4.07075 8.78971)
(-1.90856e-15 -4.27637 7.64107)
(-3.05891e-15 -4.04774 2.10611)
(-2.84617e-15 -2.69519 -4.48982)
(-2.98232e-15 -4.37384 -1.18242)
(-3.91611e-15 -2.95809 -2.66646)
(-2.21579e-15 -3.18042 -1.11948)
(-2.3968e-15 -2.7088 -1.32989)
(-3.03573e-15 -2.99187 -1.57678)
(-1.52042e-15 -2.41156 -0.849501)
(-1.73061e-15 -2.20969 -0.945486)
(-2.23356e-15 -2.28335 -1.16873)
(-9.07861e-16 -1.86931 -0.556335)
(-1.1255e-15 -1.73435 -0.634221)
(-1.62204e-15 -1.79558 -0.812214)
(-5.8548e-16 -1.39813 -0.38223)
(-8.0023e-16 -1.45007 -0.423893)
(-8.92799e-16 -1.27235 -0.422181)
(-1.42609e-15 -1.34097 -0.524136)
(-3.25533e-16 -1.06882 -0.160709)
(-5.54753e-16 -1.03742 -0.191374)
(-8.37964e-16 -0.992122 -0.22088)
(3.31283e-16 -0.808827 0.0599867)
(7.35383e-16 4.59231 4.08838)
(-2.49246e-16 -0.87561 2.1068)
(-6.67155e-16 -4.10707 1.44571)
(-8.03308e-16 -2.115 1.25883)
(-4.20249e-16 1.85359 1.17388)
(1.1694e-15 1.61304 1.85611)
(2.36574e-15 1.15676 2.0641)
(2.68233e-15 1.03537 2.05957)
(1.98065e-15 1.12105 1.94298)
(4.20686e-16 1.73857 1.55559)
(-1.07842e-15 2.58714 0.777398)
(-1.96321e-15 1.64847 -0.458186)
(-2.56529e-15 -2.18522 -1.58306)
(-3.62555e-15 -4.327 -1.65792)
(-4.23234e-15 -3.89441 -1.46454)
(-5.15519e-15 -2.74693 -1.25125)
(-5.86685e-15 -1.20823 -1.23756)
(-5.71776e-15 -1.26004 -1.0247)
(-5.7364e-15 -0.392655 -1.10087)
(1.19987e-15 5.16841 3.36088)
(5.15886e-17 0.115559 2.53433)
(-7.66403e-16 -3.90131 1.40809)
(-7.71096e-16 -1.91529 1.39023)
(1.45675e-15 1.55618 1.6555)
(3.6576e-15 1.30351 2.71748)
(3.65144e-15 1.06733 3.01036)
(2.95532e-15 1.07184 3.07277)
(1.27775e-15 1.29517 2.90998)
(-8.14944e-16 2.13044 2.41055)
(-2.06884e-15 3.25559 1.38593)
(-1.88975e-15 2.5652 0.101691)
(-1.9344e-15 -1.73655 -1.5788)
(-3.33628e-15 -4.45187 -1.50309)
(-4.17467e-15 -4.00088 -1.16836)
(-5.12309e-15 -2.7797 -1.10657)
(-5.86307e-15 -1.24165 -1.24015)
(-5.76698e-15 -1.30989 -1.13593)
(-5.82083e-15 -0.672685 -1.16873)
(1.61458e-15 5.02774 2.96433)
(2.9479e-16 0.113503 2.84988)
(-1.08062e-15 -3.68744 1.71078)
(-6.6131e-16 -2.02543 1.66401)
(3.39978e-15 1.23802 2.44872)
(4.41999e-15 1.06688 3.44226)
(1.76394e-15 0.997078 3.71714)
(-6.77722e-16 1.09257 3.76983)
(-2.84166e-15 1.41658 3.60351)
(-4.00133e-15 2.39223 3.19808)
(-3.3864e-15 3.63177 2.49967)
(-1.85443e-15 2.96374 1.92063)
(-1.62399e-15 -1.5431 -0.103863)
(-2.93336e-15 -4.48069 -1.03585)
(-4.03668e-15 -4.04216 -0.607332)
(-5.00846e-15 -2.74404 -0.794498)
(-5.69783e-15 -1.1835 -1.20349)
(-5.72313e-15 -1.25828 -1.26424)
(-5.94532e-15 -0.666884 -1.29875)
(2.03722e-15 5.10545 2.81722)
(2.55863e-16 0.498423 3.1821)
(-1.30551e-15 -3.49143 2.30576)
(-4.11032e-16 -2.16076 2.00214)
(4.09003e-15 0.796878 3.21304)
(2.06659e-15 0.826473 4.09254)
(-3.2275e-15 0.943381 4.25831)
(-6.76304e-15 1.13119 4.3164)
(-8.38624e-15 1.50192 4.34995)
(-7.26648e-15 2.51833 4.45905)
(-3.92806e-15 3.78331 4.79183)
(-1.73732e-15 3.46944 4.81904)
(-1.63248e-15 -0.697696 1.99718)
(-2.47216e-15 -4.28204 -0.306578)
(-3.83551e-15 -4.01899 0.265393)
(-4.88228e-15 -2.57331 -0.267015)
(-5.54038e-15 -1.09793 -1.01429)
(-5.56949e-15 -1.41682 -1.27098)
(-5.94763e-15 -0.937286 -1.53489)
(2.11388e-15 4.88994 2.76825)
(-8.1081e-17 0.407049 3.70743)
(-1.49967e-15 -3.26248 3.06612)
(-2.3422e-16 -2.29472 2.44178)
(1.95538e-15 0.35172 3.82642)
(-4.09462e-15 0.659348 4.57729)
(-1.04091e-14 0.907168 4.6654)
(-1.2779e-14 1.07481 4.92393)
(-1.19569e-14 1.33341 5.53318)
(-7.79429e-15 2.20758 6.62741)
(-3.36792e-15 3.563 8.01826)
(-1.85478e-15 4.06247 7.86446)
(-2.23071e-15 0.471068 4.08228)
(-2.02434e-15 -3.87354 0.791995)
(-3.66692e-15 -3.96104 1.28929)
(-4.81495e-15 -2.22727 0.444037)
(-5.29915e-15 -0.649857 -0.873313)
(-5.38708e-15 -0.923031 -1.29158)
(-5.697e-15 -0.521249 -1.6306)
(1.78251e-15 4.66952 3.028)
(-8.33168e-16 0.322805 4.32654)
(-1.6098e-15 -3.01556 3.84025)
(-3.97989e-16 -2.38229 3.03267)
(-2.6001e-15 -0.0909288 4.22731)
(-1.18362e-14 0.50276 4.90299)
(-1.58719e-14 0.804264 5.13578)
(-1.5108e-14 0.797912 5.96401)
(-1.09746e-14 0.786597 7.57923)
(-5.58183e-15 1.51279 9.70496)
(-2.52458e-15 3.32674 11.117)
(-2.33351e-15 5.00083 10.1225)
(-2.93551e-15 2.14171 6.26433)
(-2.1051e-15 -3.18767 2.12382)
(-3.50791e-15 -3.79694 2.42126)
(-5.16881e-15 -1.75006 1.46143)
(-5.84962e-15 -0.604512 -0.268719)
(-5.24663e-15 -1.57335 -0.808301)
(-5.86477e-15 -1.01367 -2.80531)
(1.38336e-15 4.33198 3.46339)
(-1.6429e-15 0.0790098 4.98942)
(-1.81351e-15 -2.76571 4.55785)
(-1.64761e-15 -2.37613 3.65877)
(-8.60719e-15 -0.435213 4.3848)
(-1.76286e-14 0.326509 5.10038)
(-1.66543e-14 0.478553 5.85085)
(-1.19322e-14 0.0900436 7.5328)
(-6.23229e-15 -0.194624 9.99175)
(-2.65327e-15 0.816773 12.0509)
(-1.98071e-15 3.46511 12.0528)
(-2.1842e-15 6.04337 10.3282)
(-3.24082e-15 3.70823 7.88322)
(-3.85888e-15 -2.45106 3.88849)
(-3.87859e-15 -3.59244 3.50956)
(-5.06764e-15 -1.03274 2.53368)
(-5.09454e-15 0.680933 -0.225134)
(-5.75945e-15 0.798101 -1.3634)
(-6.81962e-15 0.808107 -3.06002)
(1.17676e-15 3.98661 3.96033)
(-2.26928e-15 -0.146096 5.48492)
(-2.07264e-15 -2.50168 5.10478)
(-4.53315e-15 -2.24933 4.07775)
(-1.45186e-14 -0.71621 4.19369)
(-2.00927e-14 -0.0763326 5.06762)
(-1.48621e-14 -0.188003 6.45815)
(-8.18972e-15 -0.83682 8.55337)
(-3.60594e-15 -1.00351 10.6744)
(-1.75156e-15 0.734119 11.1883)
(-1.12586e-15 4.03196 9.52516)
(-1.00239e-15 6.71145 8.01795)
(-2.58009e-15 4.69433 8.21418)
(-4.81893e-15 -1.59705 5.65137)
(-4.72113e-15 -3.17729 3.25904)
(-4.47827e-15 -0.213395 2.76114)
(-2.40458e-15 0.579941 4.32921)
(-1.73795e-15 -1.40846 6.68775)
(1.37526e-16 -5.59625 10.3651)
(1.27066e-15 3.64501 4.44108)
(-3.46528e-15 -0.36969 5.66789)
(-3.32803e-15 -2.22 5.27941)
(-8.16533e-15 -1.9626 4.03039)
(-1.92426e-14 -0.879842 3.5268)
(-2.21378e-14 -0.575637 4.47924)
(-1.47994e-14 -0.928716 6.16893)
(-6.85628e-15 -1.57499 8.15884)
(-2.35782e-15 -1.26418 9.33748)
(-3.3881e-16 1.25489 8.07341)
(6.81402e-16 4.65562 5.93384)
(6.84495e-17 6.63081 5.18815)
(-1.53766e-15 4.65022 7.81124)
(-4.12844e-15 -0.339862 7.84268)
(-4.60711e-15 -2.62638 5.12545)
(-2.22841e-15 -1.50847 8.35361)
(3.55513e-16 -0.886337 12.783)
(1.13865e-15 -1.60003 13.281)
(2.01447e-15 -3.28177 12.6336)
(1.75164e-15 3.41554 4.96604)
(-5.36136e-15 -0.447531 5.56509)
(-7.07932e-15 -1.87138 4.9374)
(-1.13924e-14 -1.50558 3.80047)
(-1.90637e-14 -0.94881 3.44649)
(-1.98236e-14 -1.11599 4.50608)
(-1.37324e-14 -1.62688 5.85354)
(-5.54563e-15 -2.0604 7.17276)
(-9.8833e-16 -1.04104 7.27249)
(1.67898e-15 2.00361 5.34819)
(1.92472e-15 5.11804 4.05072)
(1.19902e-16 6.05307 4.015)
(-3.19458e-16 3.40756 8.01221)
(-2.21576e-15 -0.692869 11.2508)
(-2.47033e-15 -3.11005 10.5915)
(-2.66608e-16 -2.88654 12.6669)
(1.89857e-15 -1.46337 13.547)
(3.03881e-15 -1.30873 10.5725)
(4.5883e-15 -2.54227 6.27182)
(2.50093e-15 3.30653 5.65786)
(-4.46026e-15 -0.262119 5.90504)
(-8.20712e-15 -1.53819 5.03365)
(-8.6024e-15 -1.32515 4.9812)
(-9.48233e-15 -1.20165 5.58035)
(-9.48119e-15 -1.51013 6.10414)
(-6.9853e-15 -1.98347 6.19581)
(-3.58345e-15 -2.13436 6.23657)
(4.20005e-16 -0.532572 5.29687)
(2.59909e-15 2.51754 3.63953)
(1.5539e-15 5.20385 3.3968)
(2.54903e-16 5.1953 4.14111)
(8.68565e-16 1.77912 8.52003)
(5.68829e-16 -1.42103 12.316)
(5.17079e-16 -3.30847 13.1024)
(1.51235e-15 -2.82819 13.6359)
(2.25251e-15 -0.346938 12.9258)
(4.15914e-15 1.74051 10.6217)
(1.61245e-14 2.98722 6.49378)
(2.75676e-15 3.15613 6.49076)
(-1.68318e-15 -0.128736 7.26479)
(-4.06692e-15 -1.54565 6.8743)
(-1.39818e-15 -1.66621 8.18021)
(5.50523e-16 -1.42932 9.3588)
(-3.16728e-16 -1.36997 8.94853)
(-1.28665e-15 -1.68491 7.3812)
(-8.216e-16 -1.71014 5.71078)
(1.66548e-15 0.0460804 3.71734)
(2.70315e-15 2.69127 2.60381)
(5.29903e-16 4.92133 2.84718)
(-4.7384e-16 4.06357 4.48096)
(1.08354e-15 0.111492 9.0644)
(1.09484e-15 -2.40425 12.361)
(7.89188e-16 -3.64107 13.785)
(-5.34018e-16 -2.77334 14.346)
(-2.46034e-15 -0.122216 13.8595)
(-3.02008e-15 2.04839 12.6187)
(-2.52119e-15 3.69887 12.1953)
(2.96192e-15 2.82325 7.20135)
(8.70588e-16 -0.348717 8.86968)
(8.9921e-17 -1.96319 9.27733)
(2.99512e-15 -2.29347 11.1968)
(4.89123e-15 -1.55081 12.2154)
(4.22831e-15 -0.744568 10.6692)
(3.59782e-15 -0.691902 7.78642)
(3.64396e-15 -0.665686 5.0611)
(4.176e-15 0.761282 2.593)
(2.84904e-15 2.80197 1.76958)
(-8.69018e-16 4.4431 2.06509)
(-9.88549e-16 2.74741 4.31693)
(7.31267e-16 -1.42737 8.46678)
(3.20032e-17 -3.33619 11.0869)
(-4.40326e-16 -4.0088 12.2693)
(-1.07077e-15 -2.65461 10.9008)
(-7.77014e-16 0.0949413 6.94477)
(-6.76987e-16 2.02024 5.90087)
(-2.23427e-15 5.79754 10.3272)
(3.27324e-15 2.32836 7.50179)
(3.09885e-15 -0.859475 9.79012)
(2.27932e-15 -2.53859 10.656)
(3.96164e-15 -2.79599 12.2713)
(3.76957e-15 -1.19424 11.7643)
(1.39969e-15 0.469062 8.11965)
(1.99287e-15 0.588482 4.87475)
(4.61462e-15 0.375276 2.91651)
(3.78203e-15 1.32382 1.343)
(1.01755e-15 2.83974 0.921497)
(-2.58945e-15 3.88724 1.36493)
(-1.51925e-15 1.60113 3.54805)
(3.45924e-16 -2.58746 6.56674)
(-8.10612e-16 -3.96732 8.57897)
(-1.27e-15 -3.65836 9.11568)
(-6.39838e-16 -1.00169 6.19907)
(6.4308e-16 1.66634 1.462)
(6.62624e-16 1.09179 0.0490505)
(8.10733e-16 -0.417189 -0.844846)
(3.00071e-15 1.76675 7.23376)
(4.70439e-15 -1.47172 9.76017)
(3.15572e-15 -2.99533 10.8001)
(2.52401e-15 -2.72861 11.4952)
(-1.27374e-15 0.0277068 9.00815)
(-5.06102e-15 2.00392 4.80196)
(-5.62307e-15 1.47056 2.62681)
(-4.65423e-15 0.776651 1.07417)
(-2.93008e-15 1.51686 0.363931)
(-2.97189e-15 2.77076 0.278035)
(-3.93871e-15 3.35866 1.01383)
(-1.98393e-15 0.801057 2.57149)
(-2.57579e-16 -3.38262 4.14096)
(-1.08813e-15 -4.32507 5.41425)
(-1.35609e-15 -3.07198 5.52489)
(-7.43576e-17 0.502689 2.61788)
(7.41248e-16 2.61115 -0.156949)
(3.11519e-16 2.5828 -0.0338707)
(6.28534e-16 1.5434 -2.3713)
(1.81185e-15 1.19481 6.4599)
(5.16589e-15 -2.1737 8.90845)
(3.35555e-15 -3.27325 10.1269)
(1.00111e-15 -2.10782 9.78495)
(-2.366e-15 1.45631 6.17415)
(-3.25054e-15 3.06967 3.26823)
(-4.48437e-15 2.09818 2.11959)
(-6.71737e-15 1.22371 0.694429)
(-6.77119e-15 1.6404 -0.0177138)
(-5.71987e-15 2.56859 -0.0581713)
(-4.22984e-15 2.89938 0.790804)
(-2.18821e-15 0.466662 1.66091)
(-7.50408e-16 -3.73157 1.93444)
(-9.37898e-16 -4.47818 2.38194)
(-1.35797e-15 -2.59199 2.281)
(3.15884e-17 1.35744 -0.144478)
(2.58446e-16 2.85067 -1.0597)
(1.54299e-16 2.37693 -0.969218)
(2.40406e-17 1.41475 -1.5119)
(2.48882e-16 0.704119 5.39958)
(4.61406e-15 -2.82953 7.536)
(3.30909e-15 -3.38574 9.04514)
(4.68231e-16 -1.15954 7.87315)
(-1.15312e-15 2.59205 4.08371)
(-1.36271e-15 3.68434 2.56273)
(-2.93192e-15 2.53108 1.84305)
(-4.92238e-15 1.6477 0.611556)
(-5.87108e-15 1.79983 -0.0136934)
(-5.52647e-15 2.43809 -0.0198146)
(-3.88612e-15 2.59843 0.548655)
(-2.15259e-15 0.469706 0.961813)
(-1.0803e-15 -3.69712 0.383674)
(-5.49495e-16 -4.42693 0.0418594)
(-1.03013e-15 -2.19538 -0.457123)
(-1.57078e-16 1.50721 -1.93901)
(1.67494e-16 2.95776 -1.76109)
(-1.53544e-17 2.60508 -1.28544)
(-1.46796e-16 1.85327 -1.54738)
(-1.01618e-15 0.289008 4.31631)
(3.17826e-15 -3.57762 6.04137)
(3.28891e-15 -3.47742 7.73627)
(8.2429e-16 -0.0533148 6.10185)
(1.59256e-16 3.4359 2.83546)
(-7.64532e-16 4.01104 2.25161)
(-2.54144e-15 2.8774 1.54344)
(-3.95084e-15 1.97569 0.548992)
(-4.41465e-15 1.89016 0.0220803)
(-4.53741e-15 2.34492 -0.0191116)
(-3.48114e-15 2.43661 0.251963)
(-2.00853e-15 0.643293 0.374132)
(-1.30028e-15 -3.39036 -0.44727)
(-3.88676e-16 -4.09951 -1.36822)
(-4.5593e-16 -1.87189 -2.20254)
(3.62632e-17 1.69586 -2.73247)
(3.26924e-17 2.73235 -2.13163)
(-9.90521e-17 2.37592 -1.56894)
(-1.88798e-16 1.74619 -1.50468)
(-1.48444e-15 0.00731383 3.29165)
(1.69771e-15 -4.09152 4.69893)
(3.36025e-15 -3.48285 6.60095)
(1.94782e-15 0.890857 4.74671)
(1.18339e-15 4.12327 2.36274)
(-4.97966e-16 4.23474 2.06807)
(-2.28059e-15 3.16833 1.35849)
(-3.60711e-15 2.21801 0.620862)
(-4.0453e-15 1.98887 0.14903)
(-4.25319e-15 2.32546 -0.0339975)
(-3.39941e-15 2.37456 -0.0308855)
(-1.82226e-15 0.784215 -0.164494)
(-1.30942e-15 -2.98477 -0.816597)
(-4.80375e-16 -3.73723 -1.944)
(-1.89073e-16 -1.73144 -2.83196)
(-3.85337e-17 1.49707 -2.81754)
(-8.08772e-17 2.55688 -2.17344)
(-1.23083e-16 2.33607 -1.71941)
(-1.89328e-16 1.80421 -1.62917)
(-1.39195e-15 -0.353637 2.68481)
(6.06385e-16 -4.90678 3.46281)
(3.00091e-15 -3.57828 4.9636)
(2.89798e-15 1.71051 3.56238)
(1.59363e-15 4.51144 2.37394)
(-3.48485e-16 4.55082 1.87698)
(-2.08274e-15 3.53802 1.31665)
(-3.36959e-15 2.54902 0.728643)
(-3.83589e-15 2.21485 0.25046)
(-4.16459e-15 2.46303 -0.0654046)
(-3.27526e-15 2.49059 -0.24096)
(-1.72363e-15 1.04248 -0.453597)
(-1.03512e-15 -2.59952 -0.935542)
(-5.20487e-16 -3.20719 -1.85055)
(-2.05583e-16 -1.46517 -2.51721)
(-1.25734e-16 1.39248 -2.45544)
(-1.17111e-16 2.3079 -2.16524)
(-1.27354e-16 2.17555 -1.86751)
(-2.09891e-16 1.6884 -1.78862)
(1.50749e-16 13.0406 21.9392)
(-4.50435e-15 18.4805 31.2554)
(-4.09937e-15 16.6402 26.5895)
(-4.32266e-15 14.1437 22.5981)
(-4.7733e-15 13.1419 20.1672)
(-6.34933e-15 13.7673 21.0492)
(-6.2751e-15 12.9003 18.9935)
(-6.11967e-15 11.5704 16.884)
(-6.33072e-15 10.7341 15.2834)
(-6.73546e-15 10.0848 14.3244)
(-7.1814e-15 9.67295 13.5817)
(-7.61919e-15 9.1374 12.8876)
(-8.43832e-15 8.61957 12.0204)
(-9.41901e-15 7.81484 11.0556)
(-1.07554e-14 7.03042 9.71461)
(-1.25733e-14 5.77259 8.28781)
(-1.44365e-14 5.07424 6.93741)
(-1.5656e-14 4.40466 7.10991)
(-1.23394e-14 6.42106 9.76628)
(-6.98984e-15 6.63692 12.1602)
(5.5655e-17 13.1346 22.1518)
(-4.01444e-15 16.8677 29.2103)
(-3.10155e-15 14.458 24.4475)
(-3.73385e-15 12.2386 21.0688)
(-3.91615e-15 11.6893 19.6942)
(-5.76876e-15 12.4808 21.1537)
(-4.71709e-15 10.9459 18.219)
(-5.02025e-15 9.56006 15.8478)
(-5.57579e-15 8.81389 14.4205)
(-5.9716e-15 8.2884 13.632)
(-6.28627e-15 7.96657 12.9048)
(-6.64224e-15 7.39489 12.1366)
(-7.476e-15 6.93694 11.1111)
(-8.35192e-15 6.12629 10.107)
(-1.00058e-14 5.51884 8.67717)
(-1.19533e-14 4.32558 7.21325)
(-1.41349e-14 3.88955 5.78098)
(-1.46103e-14 3.46812 6.06422)
(-1.03342e-14 5.68892 8.76746)
(-6.44618e-15 5.48241 10.0052)
(3.06507e-17 13.5132 23.4741)
(-1.41338e-15 17.5268 30.1768)
(-1.24285e-15 15.5016 26.4691)
(-1.56732e-15 13.1986 22.4301)
(-1.26155e-15 12.4224 20.9225)
(-3.15834e-15 12.9832 21.7935)
(-2.09598e-15 11.8942 19.7894)
(-2.1786e-15 10.3954 17.0623)
(-2.37672e-15 9.36804 15.1727)
(-2.57991e-15 8.70919 14.1073)
(-2.77563e-15 8.29603 13.2417)
(-2.97489e-15 7.67837 12.3956)
(-3.34099e-15 7.15925 11.2874)
(-3.71417e-15 6.33074 10.2521)
(-4.46323e-15 5.77265 8.96103)
(-5.73407e-15 4.65498 7.59402)
(-7.36384e-15 4.15391 6.08285)
(-7.86342e-15 3.65979 6.11465)
(-5.43199e-15 5.43287 8.19513)
(-3.46649e-15 4.79085 8.73709)
(8.39224e-18 13.5036 23.6669)
(3.83969e-16 17.7151 30.1645)
(2.95364e-16 15.5708 26.8253)
(3.15334e-16 13.1071 22.2034)
(3.6813e-16 12.4191 21.1846)
(-1.96412e-15 13.13 22.0976)
(-1.71711e-15 11.7821 19.7224)
(-1.9709e-15 10.1064 16.8845)
(-2.24402e-15 9.09971 14.9775)
(-2.4553e-15 8.45599 13.9504)
(-2.57562e-15 8.04147 12.987)
(-2.78965e-15 7.36919 12.0297)
(-3.19286e-15 6.78188 10.7683)
(-3.55334e-15 5.8906 9.5908)
(-4.27497e-15 5.31497 8.29479)
(-4.98488e-15 4.30656 7.10478)
(-6.72183e-15 3.85 5.73453)
(-6.97719e-15 3.34468 5.60659)
(-4.98288e-15 4.6427 7.01402)
(-4.12998e-15 3.6892 6.73998)
(-1.62937e-18 13.7572 24.5234)
(-8.89119e-17 18.0911 30.468)
(-6.7427e-17 15.7177 27.487)
(-6.80628e-17 13.2663 22.3717)
(-9.58266e-17 12.7293 21.9302)
(4.71023e-16 13.5516 22.9247)
(4.55293e-16 11.8151 19.8696)
(5.10219e-16 10.1645 17.2339)
(5.5681e-16 9.39321 15.5665)
(6.01684e-16 8.75232 14.5817)
(6.37939e-16 8.2857 13.4371)
(6.86117e-16 7.50979 12.2892)
(7.84919e-16 6.83598 10.8793)
(8.91884e-16 5.88886 9.53788)
(1.08137e-15 5.22861 8.14698)
(1.33892e-15 4.31105 7.06918)
(1.62149e-15 3.90033 5.9253)
(1.82655e-15 3.26964 5.55155)
(1.35542e-15 4.02764 6.10776)
(8.3712e-16 2.92891 5.56366)
(2.78807e-19 13.861 25.0104)
(2.06039e-17 18.2854 30.4552)
(1.50304e-17 15.6376 27.7857)
(1.53974e-17 13.3636 22.3094)
(2.43894e-17 12.9374 22.3799)
(-1.06913e-16 13.7757 23.4674)
(-1.19347e-16 11.5376 19.3815)
(-1.26858e-16 10.0444 17.3212)
(-1.36466e-16 9.61508 15.9701)
(-1.45838e-16 8.86512 15.0161)
(-1.5682e-16 8.3425 13.6426)
(-1.68059e-16 7.39177 12.2945)
(-1.92903e-16 6.64477 10.7092)
(-2.20291e-16 5.59286 9.20271)
(-2.64974e-16 4.79188 7.56096)
(-3.2019e-16 3.75272 6.313)
(-3.54075e-16 3.3382 5.22909)
(-3.90366e-16 2.62056 4.85682)
(-3.49146e-16 3.24463 5.10691)
(-2.66028e-16 2.54313 5.16603)
(-4.83579e-20 14.0293 25.5488)
(-4.85554e-18 18.3996 30.3604)
(-3.42425e-18 15.5241 28.1016)
(-3.6293e-18 13.6117 22.4723)
(-6.05755e-18 13.0949 22.7783)
(2.45662e-17 13.8225 23.8712)
(3.04195e-17 11.2639 18.8766)
(3.07067e-17 10.0473 17.6476)
(3.25897e-17 9.88577 16.4538)
(3.50623e-17 8.9267 15.4273)
(3.78851e-17 8.37035 13.8721)
(4.05578e-17 7.28985 12.4054)
(4.59844e-17 6.52565 10.7261)
(5.18926e-17 5.38498 9.07813)
(6.03071e-17 4.4622 7.15686)
(6.88141e-17 3.23924 5.65784)
(7.28335e-17 2.8132 4.4666)
(8.13535e-17 2.01375 4.15445)
(7.84243e-17 3.053 4.94761)
(5.50981e-17 3.17237 6.45073)
(8.55984e-21 14.2408 25.9928)
(1.15147e-18 18.3672 30.0611)
(8.10216e-19 15.401 28.3129)
(8.68144e-19 13.9395 22.6866)
(1.48879e-18 13.1572 22.9266)
(-5.65477e-18 13.6993 23.9424)
(-7.45773e-18 11.2012 18.5832)
(-7.18111e-18 10.1007 17.8667)
(-7.53517e-18 10.0043 16.6402)
(-8.25131e-18 8.93034 15.5172)
(-8.90274e-18 8.34344 13.963)
(-9.50068e-18 7.29488 12.4541)
(-1.04924e-17 6.50272 10.8052)
(-1.15661e-17 5.3574 9.02251)
(-1.28788e-17 4.24129 6.75291)
(-1.40263e-17 2.86895 4.9139)
(-1.49268e-17 2.36679 3.4866)
(-1.78923e-17 1.571 3.20132)
(-1.74374e-17 3.25887 4.94731)
(-1.34576e-17 3.94571 7.73899)
(-1.33641e-21 14.6016 26.5842)
(-2.7272e-19 18.2412 29.6693)
(-1.96636e-19 15.2625 28.4466)
(-2.10444e-19 14.3383 23.0457)
(-3.6901e-19 13.1896 23.0067)
(1.32442e-18 13.4833 23.8331)
(1.7795e-18 11.3412 18.6798)
(1.65521e-18 10.1872 17.9851)
(1.70182e-18 10.0111 16.7555)
(1.89325e-18 9.04698 15.5657)
(2.0355e-18 8.35988 14.1515)
(2.16394e-18 7.47222 12.6178)
(2.32147e-18 6.60181 11.0862)
(2.45629e-18 5.58698 9.31583)
(2.53889e-18 4.32341 6.91078)
(2.64347e-18 2.97882 4.84032)
(2.87927e-18 2.39488 3.30032)
(3.80375e-18 1.6873 2.81275)
(3.8761e-18 3.14985 4.32145)
(2.83429e-18 3.76046 7.00841)
(1.34039e-22 15.0351 27.2046)
(6.42334e-20 18.0694 29.319)
(4.81557e-20 15.11 28.4271)
(4.89301e-20 14.7952 23.6151)
(8.61999e-20 13.2568 23.0311)
(-2.97565e-19 13.2754 23.4783)
(-3.952e-19 11.5865 19.1693)
(-3.63908e-19 10.4519 18.0923)
(-3.72417e-19 10.0431 16.9292)
(-4.2304e-19 9.31245 15.611)
(-4.54737e-19 8.45453 14.3017)
(-4.78997e-19 7.70936 12.7107)
(-4.95501e-19 6.74459 11.2235)
(-5.0371e-19 5.85577 9.54418)
(-5.39524e-19 4.60042 7.31307)
(-6.07774e-19 3.39869 5.23629)
(-6.33881e-19 2.71003 3.67942)
(-7.12799e-19 2.10702 2.9279)
(-1.23193e-18 2.75335 3.51079)
(-1.56419e-18 2.67853 4.49297)
(5.83167e-24 15.3965 27.7296)
(-1.50179e-20 17.9425 29.2669)
(-1.1926e-20 15.0899 28.1976)
(-1.25074e-20 15.2474 24.5861)
(-2.55684e-20 13.3772 23.3201)
(7.98689e-20 13.1816 22.8213)
(8.94502e-20 11.8207 20.0638)
(7.98438e-20 11.0398 18.4582)
(7.99404e-20 10.163 17.3614)
(9.06704e-20 9.70786 15.8446)
(9.63858e-20 8.6953 14.5733)
(9.8918e-20 8.03887 12.917)
(9.99441e-20 7.02096 11.3709)
(1.00897e-19 6.17941 9.70885)
(8.57201e-20 5.07592 7.76022)
(5.05675e-20 4.05113 5.90396)
(6.0855e-20 3.3077 4.31448)
(1.62064e-19 2.4655 3.08703)
(1.36181e-19 1.95807 2.00996)
(1.4509e-19 0.951344 1.17176)
(-9.76884e-24 15.5133 28.0723)
(3.48563e-21 17.8706 29.5428)
(2.9218e-21 15.3199 27.4712)
(2.31574e-21 15.2434 25.4157)
(2.49342e-21 13.481 24.0016)
(-8.7792e-21 13.3325 22.0046)
(-1.6842e-20 11.766 21.0616)
(-1.43811e-20 11.609 19.0933)
(-1.37985e-20 10.2644 17.9448)
(-1.63581e-20 9.94617 16.3638)
(-2.05598e-20 8.84704 15.0977)
(-2.61003e-20 8.216 13.4318)
(-3.17094e-20 7.13891 11.8323)
(-3.38837e-20 6.2984 10.1236)
(-3.05481e-20 5.26435 8.40763)
(-2.9865e-20 4.20993 6.55667)
(-4.4446e-20 2.97628 4.50367)
(-7.0058e-20 1.39521 2.43132)
(-5.49688e-20 -0.118923 -0.44234)
(-1.95301e-19 -1.7238 -2.42391)
(3.04833e-24 15.4077 28.2041)
(-8.1925e-22 18.1635 29.6471)
(-7.00728e-22 15.1458 27.6921)
(-5.47825e-22 15.2808 25.0236)
(-5.42256e-22 13.3136 23.9065)
(1.8746e-21 13.3031 22.1251)
(3.05614e-21 11.7798 20.9702)
(3.35154e-21 11.4599 19.2623)
(4.14135e-21 10.1211 17.9238)
(3.88533e-21 9.65464 16.4632)
(5.11268e-22 8.57196 15.143)
(-6.54894e-21 7.81149 13.5176)
(-1.54151e-20 6.67745 11.8336)
(-2.20589e-20 5.70138 9.98581)
(-1.81719e-20 4.42844 7.95939)
(-1.91651e-20 2.70706 5.0164)
(-1.13109e-19 0.514643 1.4812)
(-3.58757e-19 -0.560496 0.179821)
(-7.85248e-19 -0.239596 0.443716)
(-8.94368e-19 0.841012 1.91661)
(-1.2111e-24 15.5807 28.677)
(1.91463e-22 18.5511 29.8442)
(1.66944e-22 15.1957 27.8899)
(1.18946e-22 15.6046 25.1959)
(1.23867e-22 13.5508 24.0464)
(-3.4092e-22 13.3264 21.854)
(-3.3113e-22 11.909 20.6356)
(1.71838e-23 11.4771 18.8771)
(3.24618e-22 10.3152 17.4649)
(6.41724e-22 9.70916 15.9829)
(-1.03776e-22 8.80763 14.6022)
(-2.80092e-21 8.04924 13.1164)
(-6.75345e-21 7.14279 11.5741)
(-1.20962e-20 6.2091 9.82)
(-1.73833e-20 4.91397 7.61917)
(-2.31324e-20 3.34147 4.82637)
(-1.23938e-19 1.40467 1.40173)
(-3.19558e-19 1.06303 0.738525)
(-2.64254e-19 1.90526 2.07177)
(9.33188e-20 1.86303 2.38383)
(9.43833e-25 16.0671 30.176)
(-4.30748e-23 19.0052 29.9749)
(-4.4413e-23 15.3612 28.5089)
(-4.8425e-23 16.1846 25.7879)
(-6.2119e-23 14.0133 24.8141)
(7.65827e-23 14.0175 22.7808)
(2.41566e-22 12.7384 21.4414)
(4.55107e-22 12.2186 19.8593)
(7.11862e-22 11.4318 18.476)
(8.75902e-22 10.7848 17.0606)
(8.8739e-22 10.1135 15.6549)
(6.92212e-22 9.40075 14.178)
(-3.83434e-23 8.58478 12.5395)
(8.82465e-23 7.5418 10.6031)
(-1.27199e-21 6.19442 8.31703)
(-5.714e-21 4.59534 5.72932)
(-2.11361e-20 2.86154 2.92115)
(-5.56158e-20 1.5775 0.767261)
(-1.00891e-19 -0.0525769 -1.14772)
(-5.63232e-20 -0.797653 -3.06666)
(2.3161e-25 16.2854 31.5096)
(1.10713e-23 18.9202 29.5162)
(2.03613e-24 15.1375 28.839)
(-2.39769e-23 16.2609 26.1718)
(-3.88544e-23 13.8878 25.311)
(-1.14728e-23 13.9713 23.3266)
(1.62594e-22 12.6321 22.1774)
(4.85078e-22 12.1835 20.6606)
(7.85857e-22 11.3398 19.4317)
(6.63592e-22 10.7415 18.1183)
(-4.9936e-22 10.0149 16.7913)
(-3.24429e-21 9.18428 15.1917)
(-7.63554e-21 8.00217 13.087)
(-1.37277e-20 6.31431 10.2282)
(-1.98234e-20 4.14125 6.75008)
(-1.99687e-20 1.96791 3.3798)
(-6.28521e-21 0.164935 0.820733)
(2.45389e-21 -0.948121 -1.94217)
(-4.62445e-20 -2.52519 -3.55068)
(-1.29597e-19 -2.53455 -5.9806)
(5.39258e-25 15.6776 31.2941)
(-2.39592e-24 18.3694 28.5166)
(-1.34374e-23 14.4603 28.2324)
(-3.97037e-23 15.4767 25.6708)
(-5.37977e-23 13.2404 24.7797)
(1.88435e-23 13.0599 22.9791)
(2.37958e-22 11.8287 21.8033)
(5.80968e-22 11.2296 20.4232)
(8.20655e-22 10.3912 19.2441)
(4.66411e-22 9.70366 18.0058)
(-1.13477e-21 8.88192 16.6683)
(-4.44498e-21 7.86136 14.9125)
(-9.53862e-21 6.37751 12.3853)
(-1.6646e-20 4.34676 8.8791)
(-2.3456e-20 2.13816 4.9927)
(-1.60374e-20 0.741901 2.43863)
(6.09443e-21 0.31701 1.46748)
(-2.78142e-21 -0.854222 -0.664398)
(-5.74777e-20 -2.90694 -3.77522)
(-1.12114e-19 -2.45891 -4.42098)
(4.12909e-25 14.2641 30.46)
(3.50976e-25 17.9086 27.5094)
(-9.75187e-24 13.3383 27.4109)
(-3.32825e-23 14.2078 25.0714)
(-4.56888e-23 12.1276 24.1416)
(1.11752e-23 11.6415 22.5696)
(1.98974e-22 10.5173 21.386)
(5.02424e-22 9.76668 20.1121)
(7.44787e-22 8.93802 18.9476)
(5.5719e-22 8.18894 17.7634)
(-5.16927e-22 7.38707 16.4887)
(-2.79438e-21 6.46499 14.9187)
(-6.39281e-21 5.33197 12.8571)
(-1.13251e-20 4.05893 10.3119)
(-1.66758e-20 2.88089 7.6087)
(-1.91466e-20 1.88367 5.02549)
(-1.53042e-20 0.791769 2.33581)
(-1.19225e-20 -0.55887 -0.785901)
(-3.5472e-20 -1.76568 -2.9079)
(-7.37773e-20 -1.5333 -2.23503)
(1.3956e-25 11.221 28.3897)
(-3.28108e-25 16.909 24.8145)
(-4.78225e-24 11.9287 25.2321)
(-1.72324e-23 12.5885 23.4971)
(-2.87072e-23 10.8371 22.7469)
(-8.76088e-24 10.168 21.6445)
(8.70403e-23 9.15957 20.723)
(2.8752e-22 8.37226 19.77)
(5.69863e-22 7.58525 18.8642)
(8.33803e-22 6.87922 17.9696)
(8.89607e-22 6.22044 17.091)
(4.87775e-22 5.62456 16.2084)
(-5.70618e-22 5.08546 15.2776)
(-2.31804e-21 4.58536 14.1958)
(-4.63179e-21 4.07499 12.8291)
(-7.12946e-21 3.45988 11.0613)
(-8.82376e-21 2.63401 8.7233)
(-9.05356e-21 1.55464 5.48454)
(-1.07359e-20 0.110143 1.34571)
(-1.57336e-20 -1.03782 -1.892)
(3.59747e-26 2.63492 17.0308)
(-1.02288e-26 8.06895 13.6477)
(-5.79664e-25 5.18021 14.5133)
(-2.53711e-24 5.015 14.1052)
(-5.88291e-24 4.09672 14.0601)
(-6.23864e-24 3.54534 13.8774)
(9.1872e-24 2.98259 13.7128)
(6.11241e-23 2.52873 13.5186)
(1.71133e-22 2.14093 13.3131)
(3.51419e-22 1.83189 13.0942)
(6.00077e-22 1.59493 12.8618)
(9.04729e-22 1.4266 12.6081)
(1.24602e-21 1.31988 12.324)
(1.58983e-21 1.28177 11.9988)
(1.86408e-21 1.33457 11.6215)
(1.93457e-21 1.45374 11.2059)
(1.64865e-21 1.66284 10.7122)
(1.02509e-21 2.25487 9.82657)
(4.01851e-22 2.44998 8.46235)
(8.06839e-23 -0.245296 6.38162)
(-1.41637e-26 -2.67724 17.0866)
(-2.24121e-26 -8.06972 13.7354)
(8.51969e-26 -5.17473 14.617)
(3.12011e-25 -4.98163 14.2308)
(5.75004e-25 -4.03876 14.2069)
(7.03802e-25 -3.45732 14.0462)
(5.26852e-25 -2.8612 13.904)
(-1.19859e-25 -2.36922 13.7296)
(-1.19929e-24 -1.93718 13.5377)
(-1.13913e-24 -1.57768 13.3235)
(5.76226e-24 -1.28891 13.0943)
(3.00431e-23 -1.08166 12.868)
(7.89339e-23 -0.970458 12.674)
(1.38795e-22 -0.980277 12.5228)
(1.69394e-22 -1.12966 12.37)
(1.38164e-22 -1.36812 12.1341)
(6.82263e-23 -1.71455 11.6655)
(1.73699e-23 -2.47137 10.6331)
(1.21239e-24 -2.7771 9.0806)
(-2.03943e-24 0.0708388 6.85993)
(-1.33551e-26 -11.4355 28.7597)
(1.68933e-25 -17.061 25.2749)
(4.09421e-25 -12.1101 25.6799)
(5.87237e-25 -12.7168 23.9966)
(1.50202e-26 -10.9725 23.2728)
(-1.5526e-24 -10.2849 22.2097)
(-3.63123e-24 -9.27538 21.3161)
(-5.60609e-24 -8.47813 20.3862)
(-5.39701e-24 -7.68519 19.4909)
(1.5246e-24 -6.97258 18.6027)
(1.68027e-23 -6.30986 17.7294)
(1.84464e-23 -5.68677 16.8354)
(-5.40065e-23 -5.03256 15.8006)
(-2.4799e-22 -4.22107 14.3688)
(-4.86141e-22 -3.10384 12.2082)
(-5.79392e-22 -1.62708 9.11573)
(-4.71363e-22 0.0374371 5.20899)
(-2.52509e-22 1.63229 0.985998)
(3.23622e-22 2.82259 -2.46663)
(8.01764e-22 2.16837 -3.62927)
(-7.92415e-27 -14.5112 31.0798)
(-3.84154e-25 -18.3236 27.898)
(-2.10331e-25 -13.6491 27.8997)
(-5.7666e-25 -14.6989 25.4755)
(-1.58961e-24 -12.5923 24.5458)
(-2.98817e-24 -12.2274 22.9133)
(-6.18409e-24 -11.1434 21.7024)
(-8.11416e-24 -10.4958 20.3655)
(-3.73156e-24 -9.74357 19.1434)
(1.25884e-23 -9.12185 17.9104)
(3.21173e-23 -8.51919 16.72)
(-2.9921e-25 -7.96674 15.518)
(-1.98944e-22 -7.35943 14.1823)
(-6.67069e-22 -6.51558 12.3925)
(-1.34383e-21 -5.13881 9.72503)
(-1.98888e-21 -3.03486 5.80178)
(-2.29524e-21 0.117277 0.649742)
(-1.39003e-21 2.13352 -4.63111)
(3.45627e-21 3.94103 -5.07543)
(4.09722e-21 3.07741 -7.80023)