/*--------------------------------*- C++ -*----------------------------------*\
| =========                 |                                                 |
| \\      /  F ield         | OpenFOAM: The Open Source CFD Toolbox           |
|  \\    /   O peration     | Version:  4.1                                   |
|   \\  /    A nd           | Web:      www.OpenFOAM.org                      |
|    \\/     M anipulation  |                                                 |
\*---------------------------------------------------------------------------*/
FoamFile
{
    version     2.0;
    format      ascii;
    class       volScalarField;
    location    "16";
    object      p;
}
// * * * * * * * * * * * * * * * * * * * * * * * * * * * * * * * * * * * * * //

dimensions      [0 2 -2 0 0 0 0];

internalField   nonuniform List<scalar> 
1680
(
22.39
-7.26861
-5.94486
-8.40612
-10.9537
-9.03079
-8.35901
-8.11432
-7.65323
-7.45428
-7.20082
-7.12482
-7.00342
-7.06685
-7.37136
-7.58436
-7.54479
-9.40961
-5.99558
-14.4961
-5.98516
-34.0105
-5.26714
-7.21102
-6.05001
-4.59881
-3.42443
-2.34575
-0.463567
0.031701
3.5032
-23.4004
-6.33586
-6.42952
-5.28301
-4.75549
-3.4481
-3.8275
0.422726
-3.82185
-48.83
-24.155
-21.0499
-2.36455
-7.79184
-7.74492
-4.31563
3.92108
1.16611
1.36729
2.87312
2.89419
2.90745
2.90133
2.90932
2.89489
2.93632
2.94161
2.83925
2.77001
18.038
16.4558
62.987
69.9704
69.5942
67.2116
62.8166
57.9481
49.5478
35.8406
19.2642
3.19927
4.56296
18.2585
32.1985
-4.96362
-40.4818
-4.84785
7.15148
-7.86383
4.71295
57.1512
70.3876
69.0783
65.6058
60.3958
56.2936
48.0324
34.4113
19.2428
5.02936
6.00795
18.0161
31.5561
-12.009
-40.7969
-3.64379
3.17127
-39.9849
-10.4503
49.8273
70.724
67.9836
63.5098
57.5644
54.4378
46.3474
32.921
19.0016
6.38385
6.82905
16.011
28.6303
-20.5058
-42.4591
-5.60303
3.63342
-78.5251
-29.6386
41.0242
70.937
65.8612
60.7121
54.1481
52.3147
44.3952
31.3376
18.5561
7.31323
7.15572
13.3153
23.6088
-26.2082
-42.3299
-6.92931
10.6596
-123.985
-54.1223
30.3718
70.7331
61.9504
56.8889
49.8561
49.7711
42.0559
29.6374
17.9391
7.90499
7.14564
10.6111
18.2538
-25.8733
-39.5261
-6.52838
9.88912
-177.103
-85.8376
17.391
69.8549
54.9853
51.5661
44.2653
46.4665
39.1227
27.7831
17.1916
8.24499
6.90754
8.07389
13.3607
-22.4975
-35.3466
-6.40474
-4.06687
-239.242
-125.309
2.12603
67.8754
43.0232
44.0748
36.7696
41.8474
35.2608
25.7135
16.3143
8.35628
6.47161
5.70205
9.10394
-20.5509
-30.4912
-7.50259
-6.43398
-309.902
-170.255
-14.6899
64.355
23.5514
33.5857
26.5489
35.2231
30.0359
23.341
15.3388
8.34573
5.93467
3.47187
5.3902
-18.5877
-26.1146
-8.40782
-6.10301
-391.887
-215.893
-31.0067
58.1467
-5.80843
19.2011
12.7498
25.8191
22.9159
20.5065
14.2144
8.16144
5.22824
1.26404
2.05204
-16.8151
-22.5593
-8.51354
-5.87899
-479.022
-257.504
-45.2442
46.8489
-44.9066
1.28263
-4.52043
13.3492
13.3769
16.9561
13.0262
8.08243
4.60056
-0.834764
-0.948767
-15.664
-19.6492
-8.80889
-5.93032
-588.453
-293.679
-58.3834
30.9334
-81.3452
-10.6681
-18.9672
0.513213
1.13136
12.4484
11.5486
7.74137
3.6122
-3.15617
-3.87948
-15.0662
-17.5142
-8.94119
-6.10061
-685.051
-324.134
-74.479
16.0471
-95.7062
-12.7187
-25.2421
-3.4876
-10.4293
6.8524
10.1352
8.09481
3.21326
-5.11618
-6.46485
-14.7283
-15.8558
-9.03427
-6.26514
-869.879
-360.444
-97.5456
1.22981
-97.573
-14.3892
-24.2987
-5.60005
-17.2486
0.39079
8.04168
7.38263
1.30698
-8.27827
-9.68089
-15.1266
-14.8138
-9.25403
-6.54371
-925.319
-401.023
-107.108
-15.0116
-96.4826
-15.8765
-25.8777
-9.26772
-13.8895
-5.08863
6.79924
9.62713
2.35757
-9.40524
-11.5918
-15.0788
-13.7742
-9.27294
-6.85205
-1423.4
-489.38
-143.722
-30.8552
-98.297
-17.0861
-28.9549
-9.98795
-13.7451
-9.49893
3.68862
6.27045
-3.95482
-16.5931
-17.2081
-17.3086
-13.962
-9.9036
-7.55997
-1040.55
-570.582
-257.902
-50.9818
-104.837
-19.1031
-33.7309
-11.1738
-17.1074
-9.30285
3.80355
15.886
5.61382
-11.181
-14.8404
-15.1703
-12.1711
-9.17057
-8.39677
-3027.38
-754.409
-208.409
-53.5564
-104.002
-17.0384
-33.4649
-11.1997
-17.4892
-4.58124
-1.62351
-2.61973
-23.7038
-38.7836
-33.1864
-24.6288
-15.8636
-12.0117
-10.2942
615.09
-1011.76
391.81
-17.0288
-82.3846
-8.20504
-24.9207
-6.22871
-11.6037
-4.81973
0.760514
37.4017
35.4204
10.3428
-2.47135
-6.61603
-6.68233
-5.82088
-9.40162
-9953.64
-812.881
-1181.87
-20.7862
-192.87
-25.9149
-60.5427
-21.8137
-24.7168
-9.54254
-2.81431
-45.2054
-112.822
-127.171
-92.1644
-56.0542
-28.903
-22.1806
-11.6961
15947.3
-2134.27
-3744.51
-81.825
-379.11
-52.8156
-99.2775
-40.4517
-45.2849
-17.1274
5.98799
113.708
221.112
208.296
131.298
72.7986
30.458
28.1048
1.16361
96.4901
95.8959
95.5219
94.5881
93.6458
92.643
91.6256
90.5817
89.5411
88.5158
87.4737
86.5245
85.4105
84.1825
83.0767
81.9984
81.0557
80.0383
79.4052
78.1537
76.1684
76.644
76.8413
77.0727
77.2429
77.3524
77.4315
77.453
77.4506
77.3986
77.3283
77.2232
77.0725
76.8948
76.7113
76.499
76.3101
76.0867
75.9031
75.6458
85.0148
84.725
84.5796
84.3766
84.2155
84.0266
83.855
83.6671
83.487
83.2945
83.1077
82.9068
82.7176
82.5076
82.3138
82.0946
81.907
81.6754
81.514
81.2189
82.0561
82.0717
82.0803
82.0711
82.0762
82.057
82.048
82.0207
81.9984
81.9621
81.9287
81.8826
81.8407
81.7841
81.7379
81.6698
81.6235
81.545
81.4999
81.3964
84.1015
83.9937
83.9554
83.8749
83.8254
83.754
83.6991
83.6318
83.574
83.5081
83.4489
83.3823
83.3234
83.254
83.1976
83.1229
83.0726
82.9889
82.9497
82.8407
84.1441
84.0907
84.0781
84.0333
84.0126
83.9719
83.9452
83.9065
83.8759
83.8375
83.8046
83.765
83.7317
83.6891
83.6577
83.6098
83.5837
83.527
83.5108
83.4374
85.0003
84.9289
84.909
84.8538
84.8248
84.7766
84.7429
84.6987
84.6625
84.6203
84.5833
84.5414
84.5052
84.4618
84.4286
84.3811
84.3542
84.2986
84.2832
84.2118
85.5052
85.445
85.4296
85.3821
85.3584
85.3169
85.2886
85.2505
85.2196
85.1834
85.1514
85.1155
85.084
85.0466
85.0179
84.9765
84.9536
84.9043
84.8925
84.829
86.1253
86.0643
86.0479
86.0003
85.9759
85.9345
85.9058
85.8681
85.8371
85.8015
85.7695
85.7347
85.7032
85.6673
85.6385
85.599
85.5762
85.529
85.5172
85.4562
86.6687
86.6117
86.5963
86.5516
86.5287
86.4898
86.4627
86.4274
86.398
86.3647
86.3342
86.3018
86.2716
86.2385
86.2106
86.174
86.1519
86.1078
86.0964
86.0389
87.2125
87.1575
87.1423
87.0992
87.0767
87.0393
87.0129
86.9789
86.9503
86.9184
86.8887
86.8579
86.8282
86.797
86.7693
86.735
86.7128
86.6713
86.6597
86.6047
87.7252
87.673
87.6583
87.6172
87.5956
87.56
87.5347
87.5023
87.4748
87.4446
87.4159
87.3869
87.358
87.3289
87.3016
87.2699
87.2477
87.209
87.1971
87.145
88.2194
88.1697
88.1552
88.116
88.0951
88.0609
88.0366
88.0056
87.9792
87.9504
87.9226
87.8953
87.867
87.84
87.8128
87.7837
87.7612
87.7253
87.7131
87.6636
88.6918
88.6447
88.6304
88.5931
88.5728
88.5402
88.5168
88.4871
88.4617
88.4342
88.4073
88.3815
88.3538
88.3288
88.3017
88.2752
88.2521
88.2194
88.2064
88.1598
89.143
89.0991
89.0852
89.0501
89.0309
89
88.9778
88.9497
88.9254
88.8994
88.8737
88.8492
88.8224
88.7991
88.7721
88.7483
88.7242
88.6949
88.6807
88.6371
89.5618
89.5213
89.5079
89.4753
89.4579
89.4288
89.4085
89.3828
89.3603
89.3366
89.313
89.2905
89.2659
89.2449
89.2188
89.1987
89.1739
89.1489
89.1334
89.0939
89.9568
89.9195
89.9049
89.8726
89.8564
89.828
89.8079
89.7837
89.7616
89.7391
89.7168
89.6954
89.6727
89.6534
89.629
89.613
89.5874
89.5692
89.5534
89.5192
90.3563
90.329
90.3177
90.2852
90.2723
90.2467
90.2271
90.2045
90.1824
90.1595
90.136
90.1121
90.087
90.0632
90.0349
90.0147
89.9806
89.9656
89.9394
89.9018
90.6303
90.6213
90.6364
90.6158
90.616
90.6086
90.604
90.5987
90.5931
90.5867
90.579
90.5696
90.5576
90.5428
90.5225
90.5016
90.463
90.4417
90.3698
90.3129
90.5958
90.5375
90.5756
90.5863
90.6038
90.6215
90.6404
90.6611
90.6838
90.7089
90.7367
90.7678
90.8025
90.8413
90.8848
90.9339
90.9866
91.0552
91.0965
91.2597
2.80165
2.75508
2.85401
2.81871
2.77732
2.63921
2.54638
2.17656
2.29935
2.21602
-0.799478
-0.26973
0.260483
-8.75603
-12.3372
-10.5481
-5.53452
-31.8482
-26.1385
-29.5389
-40.5069
-34.4229
-32.4906
-28.7483
-26.0106
-22.4249
-18.5463
-18.9527
-9.244
-4.71206
-1.09156
1.55104
3.87281
5.70483
7.1078
8.6119
7.7296
-0.702793
-0.520861
-13.8257
-20.2149
-4.93724
-26.787
-17.594
-24.9802
-17.1912
-7.47455
-21.4399
-14.0963
-17.1459
-12.5976
-9.16297
-16.7979
-14.1215
-15.6487
-20.1245
-20.2563
-20.5893
-20.4442
-20.5223
71.7175
73.1716
76.0477
65.6697
73.8287
67.8676
64.8003
63.8106
59.246
52.4086
41.5763
32.696
42.1463
63.509
62.8596
10.0075
-73.5992
-72.3065
-32.9773
71.6334
72.9824
75.6922
65.0903
73.8827
68.1648
64.8336
63.6982
59.0167
52.1468
41.0635
31.9304
41.1272
62.3159
61.1035
7.28462
-78.7196
-78.0364
-35.0962
71.5644
72.5551
74.756
64.5145
73.7072
69.1611
65.7094
63.7726
58.6252
51.728
40.413
30.6536
39.2443
59.8386
57.6883
2.84355
-85.6253
-87.636
-39.5508
71.5439
72.0704
75.1382
64.1221
72.4598
69.6417
66.4856
63.9817
58.3516
51.3045
39.4723
28.5791
36.3111
56.1493
52.9961
-2.85627
-93.8058
-98.0694
-44.8207
71.5
71.2535
76.9852
64.1857
71.3196
70.0312
67.2633
64.1658
58.1317
50.8826
38.2722
25.6908
32.3099
51.2456
47.3482
-9.29477
-101.939
-108.053
-50.1684
71.2928
70.0746
78.76
64.3807
70.5939
70.356
68.0988
64.3478
57.9561
50.4485
36.7711
21.9232
27.2256
45.2323
41.1042
-15.8801
-109.311
-116.645
-56.3313
70.8142
68.7155
79.636
64.4013
70.1603
70.8298
68.919
64.4892
57.8186
50.0106
34.943
17.2559
21.1171
38.3276
34.5293
-22.1279
-115.105
-123.11
-61.3188
70.029
67.4677
79.3422
64.1593
69.7941
71.5724
69.6306
64.5842
57.7006
49.5598
32.7515
11.7519
14.2217
30.9212
28.0146
-27.4491
-118.897
-126.959
-64.9732
69.1543
66.3411
78.217
64.0916
69.2775
72.3376
70.0373
64.6611
57.5816
49.0724
30.1825
5.72369
7.11909
23.689
22.0608
-31.1965
-120.348
-127.865
-66.7484
68.5283
65.2817
76.8184
65.0056
68.7554
72.7513
69.9355
64.7113
57.4429
48.5171
27.3178
-0.0269562
0.865023
17.6453
17.2547
-33.0054
-118.991
-126.096
-65.5017
67.9419
64.0091
75.4257
66.8879
68.5117
72.9612
69.6324
64.7316
57.2627
47.8602
24.4129
-4.22547
-3.26752
13.8001
14.0058
-32.9264
-115.236
-121.631
-63.4493
67.0552
62.1032
74.0788
69.2488
68.5593
73.1716
69.6218
64.7536
57.0238
47.0813
21.8846
-6.11044
-4.88415
12.0586
12.2151
-30.9575
-109.447
-115.473
-57.5696
66.9376
59.4928
72.4663
71.5426
68.6364
73.1804
69.8625
64.7575
56.7064
46.1699
20.0168
-6.5617
-5.031
11.0777
11.3807
-27.5037
-101.751
-106.408
-55.5327
68.6156
56.3384
70.2082
72.6181
68.7035
72.7975
70.0123
64.7075
56.281
45.1612
18.9277
-6.83835
-4.86466
9.92302
11.3343
-23.1029
-97.9114
-98.7085
-46.4935
72.2975
53.4698
67.9223
71.6461
68.9174
72.2217
69.9204
64.4948
55.715
44.0292
18.5394
-7.0211
-4.59942
8.78815
12.2138
-17.0335
-87.6054
-89.2294
-38.4155
75.5508
51.0544
67.111
69.882
69.3875
71.6825
69.5867
63.9559
54.9891
42.7083
18.4736
-6.56205
-4.00023
8.62735
14.5013
-10.7585
-71.5591
-67.6479
-16.0034
74.5764
47.3534
69.155
68.7255
69.7554
71.09
68.9775
63.0743
54.1316
41.3152
18.4787
-5.14973
-2.90542
9.92373
18.1754
-5.63045
-58.017
-45.5203
-3.45933
68.1002
41.7173
71.336
68.5759
69.8815
70.3653
67.9772
61.9965
53.1811
39.9435
18.61
-3.24455
-1.26342
12.2442
22.6757
-2.5056
-48.7035
-27.8305
1.75273
56.2919
34.4772
70.5845
68.7883
69.9109
69.4988
66.6242
60.7907
52.1436
38.5946
18.8502
-1.18041
0.658578
14.8413
27.3547
-1.19527
-43.6184
-15.5149
3.62899
39.5391
26.125
67.5016
69.2844
69.8258
68.4709
64.8971
59.4423
50.9342
37.2331
19.1035
1.03125
2.6612
17.0321
30.8805
-1.58639
-41.145
-7.85733
5.12116
639.047
556.068
506.703
450.229
401.006
353.51
309.355
267.666
228.461
191.469
156.535
123.469
92.0623
62.271
34.205
7.12328
-18.4868
-38.1745
-61.4742
-98.7183
-54.838
-77.7879
-69.9366
-81.362
-84.4373
-91.412
-96.6733
-102.231
-107.057
-111.354
-114.881
-117.584
-119.369
-120.159
-119.863
-118.474
-115.965
-112.777
-110.494
-108.422
-76.427
-83.379
-75.2388
-82.2396
-80.3407
-83.7839
-85.1849
-87.8614
-90.2586
-92.9504
-95.6326
-98.3841
-101.123
-103.793
-106.252
-108.012
-108.76
-107.827
-106.758
-104.791
-68.7274
-71.9555
-69.0105
-74.9089
-73.5333
-77.3059
-78.1485
-80.3033
-81.6657
-83.0495
-84.1157
-84.9365
-85.478
-85.6924
-85.5647
-84.862
-83.5094
-81.176
-78.4965
-75.5307
-67.2107
-67.7359
-64.1986
-66.3888
-62.2488
-62.946
-60.1018
-59.0198
-56.8124
-54.9009
-52.7479
-50.6615
-48.6626
-46.9086
-45.5359
-44.6322
-43.7981
-42.445
-40.8855
-38.9929
-43.1987
-43.4869
-40.8427
-42.5116
-39.326
-40.3813
-38.2608
-38.3848
-37.4124
-37.3527
-37.2268
-37.5141
-37.9735
-38.6511
-39.4595
-40.4393
-41.5612
-42.491
-43.0119
-44.545
-52.3373
-55.7798
-54.9216
-58.4326
-57.7618
-60.6347
-60.7835
-62.8576
-63.7019
-65.2696
-66.3957
-67.7044
-68.9122
-70.2873
-71.8671
-73.7944
-75.9287
-77.7277
-79.9291
-83.5903
-94.3611
-99.4051
-99.7745
-104.067
-105.046
-109.03
-110.94
-114.663
-117.482
-121.173
-124.485
-127.91
-130.945
-133.606
-135.655
-137.229
-138.187
-138.362
-138.802
-137.287
-121.127
-124.287
-123.642
-126.389
-126.079
-128.556
-128.9
-130.786
-131.617
-132.913
-133.597
-133.984
-133.765
-132.979
-131.653
-129.838
-127.848
-125.523
-123.718
-120.105
-105.48
-105.066
-103.022
-103.294
-101.044
-100.834
-98.952
-97.9875
-96.3429
-94.8678
-93.1676
-91.3813
-89.4867
-87.4833
-85.4383
-83.2742
-81.1574
-78.7088
-76.6695
-73.4949
-78.6913
-76.6933
-74.5677
-73.808
-71.4835
-70.5057
-68.5605
-67.1792
-65.5295
-63.9923
-62.4469
-60.9172
-59.4158
-57.9149
-56.4413
-54.9181
-53.4658
-51.8307
-50.5859
-48.8217
-57.7553
-55.4398
-53.5724
-52.5204
-50.5661
-49.5496
-47.928
-46.6967
-45.3322
-44.0414
-42.7724
-41.5253
-40.3122
-39.1087
-37.8998
-36.5946
-35.2573
-33.705
-32.5004
-30.9897
-34.8181
-32.5548
-31.1637
-30.0153
-28.4849
-27.6111
-26.3575
-25.5358
-24.7297
-24.2013
-23.8772
-23.7579
-23.7294
-23.6205
-23.1575
-22.267
-21.0018
-19.6989
-18.7446
-18.0731
-21.5461
-20.3598
-20.0959
-19.7441
-19.2954
-19.1534
-18.7547
-18.6407
-18.4473
-18.3694
-18.2741
-18.2248
-18.2605
-18.4702
-18.9913
-19.9223
-20.9552
-22.1172
-22.3372
-23.3801
-8.04453
-9.6125
-10.5703
-11.2255
-11.4698
-12.1758
-12.7274
-13.7315
-14.9281
-16.7191
-19.1632
-22.6059
-27.1733
-32.6788
-38.4184
-43.4445
-46.9601
-48.3263
-48.3421
-51.7446
-41.0035
-46.4941
-50.605
-54.9303
-59.2399
-63.8077
-68.0516
-72.2256
-75.9499
-79.356
-82.2521
-84.6602
-86.4565
-87.6232
-88.2083
-88.3309
-88.0903
-87.8708
-89.0712
-92.6216
-91.1671
-97.1433
-102.026
-106.088
-109.874
-113.592
-117.007
-120.303
-123.381
-126.448
-129.52
-132.631
-135.676
-138.489
-140.859
-142.505
-143.331
-143.805
-144.28
-142.747
-128.989
-131.874
-132.464
-131.906
-132.115
-132.564
-133.078
-133.755
-134.494
-135.29
-136.022
-136.565
-136.756
-136.424
-135.533
-134.005
-132.172
-129.966
-128.312
-125.415
-142.401
-140.44
-136.141
-130.732
-126.272
-122.402
-119.038
-116.085
-113.425
-111.004
-108.731
-106.529
-104.33
-102.091
-99.8614
-97.5939
-95.4965
-93.2678
-91.5423
-88.8334
-94.5605
-90.3937
-85.3455
-80.7386
-78.0001
-75.8063
-74.1781
-72.8509
-71.7011
-70.6891
-69.6706
-68.8619
-68.0457
-66.9936
-65.8673
-64.6822
-63.4886
-62.163
-61.0525
-59.6342
)
;

boundaryField
{
    outletWallLeft
    {
        type            fixedValue;
        value           uniform 0;
    }
    fineWallsLeft
    {
        type            zeroGradient;
    }
    fineFrontAndBackLeft
    {
        type            zeroGradient;
    }
    fineplugLeft
    {
        type            cyclicAMI;
        value           nonuniform List<scalar> 
20
(
75.995
80.8064
75.3641
74.2283
73.7067
73.1947
72.6156
71.9962
71.5401
70.819
70.6796
73.756
67.0612
66.0601
65.4048
64.6477
64.155
63.2652
63.6087
61.7586
)
;
    }
    symmetryWallLeft
    {
        type            cyclicAMI;
        value           nonuniform List<scalar> 
20
(
2.78583
6.13632
-6.35259
-40.8134
-3.275
31.5395
17.6453
3.61208
2.11526
19.1839
36.5368
50.241
58.6952
63.8568
67.8412
69.71
69.6274
65.2443
21.2904
28.7885
)
;
    }
    inletOutletLeft
    {
        type            cyclicAMI;
        value           nonuniform List<scalar> 
20
(
61.7586
63.6087
63.2652
64.155
64.6477
65.4048
66.0601
67.0612
73.756
70.6796
70.819
71.5401
71.9962
72.6156
73.1947
73.7067
74.2283
75.3641
80.8064
75.995
)
;
    }
    inletLeft
    {
        type            zeroGradient;
    }
    inletWallsLeft
    {
        type            zeroGradient;
    }
    inletFacesLeft
    {
        type            zeroGradient;
    }
    fineWallsRight
    {
        type            zeroGradient;
    }
    outletWallRight
    {
        type            zeroGradient;
    }
    fineplugRight
    {
        type            cyclicAMI;
        value           nonuniform List<scalar> 
20
(
-55.8087
-55.7266
-56.2286
-56.5405
-56.9479
-57.1788
-57.3041
-58.2271
-61.9369
-56.6789
-56.7696
-57.0506
-57.5061
-58.2015
-59.2235
-60.6777
-63.0449
-68.4169
-79.9543
-78.4136
)
;
    }
    fineFrontAndBackRight
    {
        type            zeroGradient;
    }
    symmetryWallRight
    {
        type            cyclicAMI;
        value           nonuniform List<scalar> 
20
(
2.78583
6.13632
-6.35259
-40.8134
-3.275
31.5395
17.6453
3.61208
2.11526
19.1839
36.5368
50.241
58.6952
63.8568
67.8412
69.71
69.6274
65.2443
21.2904
28.7885
)
;
    }
    inletOutletRight
    {
        type            cyclicAMI;
        value           nonuniform List<scalar> 
20
(
-55.8087
-55.7266
-56.2286
-56.5405
-56.9479
-57.1788
-57.3041
-58.2271
-61.9369
-56.6789
-56.7696
-57.0506
-57.5061
-58.2015
-59.2235
-60.6777
-63.0449
-68.4169
-79.9543
-78.4136
)
;
    }
    inletRight
    {
        type            zeroGradient;
    }
    inletWallsRight
    {
        type            zeroGradient;
    }
    inletFacesRight
    {
        type            zeroGradient;
    }
}


// ************************************************************************* //
