/*--------------------------------*- C++ -*----------------------------------*\
| =========                 |                                                 |
| \\      /  F ield         | OpenFOAM: The Open Source CFD Toolbox           |
|  \\    /   O peration     | Version:  4.1                                   |
|   \\  /    A nd           | Web:      www.OpenFOAM.org                      |
|    \\/     M anipulation  |                                                 |
\*---------------------------------------------------------------------------*/
FoamFile
{
    version     2.0;
    format      ascii;
    class       surfaceScalarField;
    location    "16";
    object      phi;
}
// * * * * * * * * * * * * * * * * * * * * * * * * * * * * * * * * * * * * * //

dimensions      [0 3 -1 0 0 0 0];

internalField   nonuniform List<scalar> 
3120
(
-868.582
-8978.37
-868.605
1257.27
-2125.87
1257.26
1788.02
-530.756
1556.17
231.834
1556.18
1253.52
302.666
973.868
279.662
973.874
1185.01
-211.121
1185.01
1720.76
-535.735
2581.41
-860.642
2581.42
3684.7
-1103.26
3684.69
4971.25
-1286.54
6049.52
-1078.28
6049.52
6611.66
10269.5
-2681.83
11255.2
12216.8
13180.7
14152.4
15131.7
16117.2
17108.3
18104.1
19106
17734.5
2370.62
18755.5
19784.3
20818.2
21857.7
22900.4
23964.6
25074.4
25860.8
19402.2
6458.58
19402.2
19402.2
11900.6
7501.62
11900.6
11900.6
11900.6
4727.1
7173.48
4727.1
4727.11
-12.665
4740.12
-11.4533
-10.1975
-9.66862
-173.679
164.017
-173.587
-173.534
-173.468
288.34
-461.811
-5021.1
38199.7
-4927.68
19193.6
-2052.38
-1424.68
174.943
-14292.3
1512.79
-10887.6
2149.28
-7395.11
2487.68
-3200.19
2848.51
611.739
3368.19
3894.78
4124.32
6525.53
4725.74
7477.7
4717.03
5139.38
3787.25
2113.11
1108.79
1480.93
-3564.53
536.197
-8041.26
-2598.24
-8147.7
-11441.1
-4408.55
-10433.8
-4246.82
-4884.34
43102.5
-5275.77
19585
-2255.12
-4445.32
558.09
-17105.6
2097.02
-12426.6
2760.49
-8058.59
2929.4
-3369.1
3123.68
417.456
3502.51
3515.95
4156.12
5871.92
4796.63
6837.19
4914.68
5021.34
4120.71
2907.08
1600.97
4000.67
-2815.71
4952.88
-7449.69
2035.74
-8868.95
-10021.8
-6969.71
-12333
-11052.5
-4722.79
47937.4
-5725.26
20587.5
-2390.26
-7780.32
1103.68
-20599.5
2831.92
-14154.8
3522.43
-8749.09
3520.97
-3367.64
3491.55
446.866
3690.99
3316.51
4177.9
5385.02
4720.47
6294.62
4888.34
4853.46
4258.82
3536.59
2628.13
5631.37
-813.492
8394.49
-4587.42
5809.66
-6866.5
-7742.73
-7871.99
-11327.6
-14184.3
-4577.4
52722.1
-6219.38
22229.5
-2364.29
-11635.4
1844.81
-24808.6
3756.94
-16066.9
4464.87
-9457.02
4322.16
-3224.92
4005.02
764.009
3935.57
3385.96
4247.66
5072.92
4641.25
5901.03
4775.11
4719.6
4273.03
4038.68
3389.57
6514.83
1143.8
10640.3
-860.164
7813.63
-3250.02
-5352.87
-6993.14
-7584.42
-14004
-4532.62
57559.1
-6708.82
24405.7
-2144.15
-16200.1
2839.01
-29791.7
4922.31
-18150.3
5619.9
-10154.6
5350.99
-2956.02
4721.51
1393.49
4258.31
3849.16
4335.2
4996.04
4599.4
5636.82
4671.35
4647.65
4252.99
4457.04
3761.92
7005.9
2656.33
11745.9
1862.62
8607.34
48.1753
-3538.44
-4199.17
-3337.08
-10701.6
-4648.63
62610.7
-7043.31
26800.4
-1569.82
-21673.6
4144.94
-35506.5
6382.29
-20387.6
7034.83
-10807.1
6606.55
-2527.74
5671.34
2328.7
4738.04
4782.46
4450.92
5283.17
4572.64
5515.1
4601.35
4618.94
4244.2
4814.19
3870.25
7379.85
3612.66
12003.4
3140.31
9079.69
1873.54
-2271.66
-714.972
-748.557
-4957.94
-4904.7
68018.6
-7031.24
28926.9
-454.019
-28250.8
5784.81
-41745.3
8150.01
-22752.8
8747.96
-11405.1
8106.45
-1886.23
6846.04
3589.11
5425.21
6203.29
4660.26
6048.11
4558.11
5617.26
4554.36
4622.69
4248.96
5119.59
3869.16
7759.64
4011.05
11861.6
3955.91
9134.83
2529.16
-844.925
2100.3
-319.709
-487.044
-5212.64
73832.7
-6554.71
30269
1272.49
-36078
7658.82
-48131.7
10060.4
-25154.4
10650.8
-11995.5
9825.79
-1061.23
8223.8
5191.09
6314.29
8112.81
5014.96
7347.44
4583.98
6048.24
4519.12
4687.56
4254.65
5384.05
3840.24
8174.05
4037.33
11664.5
4116.58
9055.58
2732.76
538.89
2807.93
-394.874
-360.933
-5513.44
80047.9
-5698.6
30454.2
3458.16
-45234.8
9398.56
-54072.1
11413.2
-27169
12073.7
-12656
11440.9
-428.452
9719.63
6912.36
7370.18
10462.3
5527.74
9189.88
4687.42
6888.56
4494.73
4880.25
4243.43
5635.35
3791.48
8626
3879.72
11576.2
3874.81
9060.48
2847.68
1566.01
2080.7
372.093
641.446
-5786.11
86626.5
-4629.12
29297.2
5704.71
-55568.6
10064.6
-58432
10405.7
-27510.1
10998.7
-13248.9
11734.1
-1163.85
10968.3
7678.09
8512.15
12918.4
6169.38
11532.7
4884.7
8173.24
4497.66
5267.29
4211.32
5921.69
3707.36
9129.96
3635.89
11647.7
3510.65
9185.72
2588.65
2488.01
1894.84
1065.91
1249.75
-6142.55
93669.2
-3598.83
26753.5
7361.2
-66528.6
8246.87
-59317.6
4776.38
-24039.6
4471.83
-12944.4
8205.19
-4897.21
10945.2
4938.06
9525.52
14338.1
6923.1
14135.1
5220.54
9875.8
4582.18
5905.64
4170.53
6333.35
3568.54
9731.95
3336.19
11880
3111.79
9410.11
2267.95
3331.84
1649
1684.84
1795.46
-6572.74
101211
-2816.58
22997.3
7821.06
-77166.3
3809.19
-55305.8
-3030.42
-17200
-2917.86
-13056.9
2846.01
-10661.1
8900.97
-1116.9
10004
13235.2
7725.52
16413.5
5713.26
11888.1
4793.89
6825.02
4154.34
6972.9
3382.09
10504.2
2998.83
12263.3
2712.96
9695.99
1958.14
4086.66
1367.91
2275.07
2302.73
-7487.69
109835
-2738.24
18247.8
7110.59
-87015.1
-124.766
-48070.4
-5512.56
-11812.2
-3877.82
-14691.7
-1291.63
-13247.3
4468.45
-6876.98
9394.45
8309.15
8441.03
17366.9
6405.29
13923.8
5159.59
8070.72
4148.29
7984.19
3131.09
11521.4
2623.03
12771.4
2317.81
10001.2
1666.14
4738.32
1101.79
2839.41
2868.75
-8219.46
119167
-3009.01
13037.4
5892.13
-95916.2
-1418.54
-40759.8
-4236.57
-8994.18
-3473.39
-15454.9
-2712.4
-14008.3
1747.03
-11336.4
8039.18
2017
8844.51
16561.6
7151.58
15616.7
5611.06
9611.24
4158.9
9436.35
2863.21
12817.1
2256.09
13378.5
1963.65
10293.6
1424
5277.98
897.631
3365.78
3555.27
-10861.2
131584
-4590.97
6767.16
4387.39
-104895
-2141.81
-34230.6
-2816.76
-8319.24
-3016.06
-15255.6
-2388.76
-14635.6
-300.689
-13424.5
5499.61
-3783.3
8753.93
13307.3
7908.01
16462.7
6076.8
11442.4
4054.89
11458.2
2482.35
14389.6
1839.45
14021.4
1592.28
10540.8
1165.61
5704.63
661.685
3869.69
4496.59
-9969.26
142596
-4118.2
916.1
2488.58
-111501
-3499.14
-28242.8
-1971.12
-9847.26
-2561.68
-14665
-1852.95
-15344.3
-2083.11
-13194.3
2711.12
-8577.53
7964.1
8054.31
8213.75
16213
6348.07
13308.1
3979.54
13826.8
2241.5
16127.7
1573.99
14688.9
1362.77
10752
1039.32
6028.09
599.7
4309.32
5398.97
-16094.8
161387
-7142.1
-8036.63
775.862
-119419
-4983.24
-22483.7
-1292.14
-13538.4
-2285.99
-13671.2
-1384.15
-16246.1
-2110.58
-12467.9
1391.46
-12079.6
6841.45
2604.33
8308.03
14746.4
6305.99
15310.2
3389.98
16742.8
1525.16
17992.5
950.118
15263.9
838.522
10863.6
662.676
6203.93
292.479
4679.5
5923.27
-7921
168704
-8168.02
-7789.61
-1043.02
-126544
-7788.79
-15738
-979.443
-20347.7
-2164.82
-12485.8
-911.729
-17499.2
-1477.08
-11902.6
127.471
-13684.1
4626.53
-1894.74
7491.4
11881.6
6420.42
16381.2
3970.65
19192.5
2197.36
19765.8
1496.6
15964.7
1285.3
11074.9
1129.53
6359.7
749.392
5059.63
6141.9
-17287.9
193549
-18420.9
-6656.65
-7464.07
-137501
-11673.3
-11528.7
-1524.1
-30496.9
-1797.73
-12212.1
-677.782
-18619.2
-950.553
-11629.8
-1675.22
-12959.5
2081.88
-5651.83
6031.14
7932.3
3261.92
19150.4
-441.918
22896.4
-2041.81
21365.7
-2087.16
16010
-1649.37
10637.1
-1324.87
6035.2
-1101.13
4835.89
2914.91
-53066.6
29123.7
-10018
-7309.56
-1701.44
-495.231
-424.168
-253.291
-1080.25
1186.23
7744.53
13259.1
14442
13666.6
12263.8
10330.1
9145.86
6226.85
-23.0737
-539.048
45.3241
-1044.43
104.589
-1044.95
147.064
-1004.01
182.152
-999.029
209.894
-999.466
231.047
-1000.43
246.471
-1000.95
257.401
-1002
264.888
-1003.29
267.445
-1004.45
270.402
-1002.07
254.906
-1005.45
235.005
-1008.94
212.255
-1011.19
186.985
-1014.19
159.669
-1015.33
136.257
-1040.88
110.885
-1084.41
-675.509
48.5887
-587.635
58.379
-1054.22
47.5232
-1034.09
43.8889
-1000.37
44.5785
-999.718
45.5541
-1000.44
46.4603
-1001.34
47.0969
-1001.59
47.5238
-1002.43
47.1752
-1002.94
46.6152
-1003.89
50.3516
-1005.8
50.7674
-1005.87
48.7337
-1006.91
45.2439
-1007.7
40.1305
-1009.08
34.4644
-1009.66
27.4233
-1033.84
17.2446
-1074.23
-658.265
30.0855
-617.719
35.0178
-1059.15
30.1808
-1029.26
29.7675
-999.96
29.9334
-999.883
29.7596
-1000.27
29.4278
-1001
28.9401
-1001.1
28.2026
-1001.69
27.2822
-1002.02
25.9258
-1002.53
22.9551
-1002.83
20.5737
-1003.49
17.9858
-1004.32
14.9671
-1004.68
11.4138
-1005.53
7.35543
-1005.6
2.96098
-1029.44
-1.15127
-1070.12
-659.416
25.2927
-643.012
26.7568
-1060.61
21.3353
-1023.83
19.3506
-997.975
17.9674
-998.5
16.5124
-998.811
15.0046
-999.496
13.4671
-999.564
11.8785
-1000.1
10.1893
-1000.33
8.45077
-1000.79
6.86457
-1001.25
4.94837
-1001.57
2.78733
-1002.16
0.488173
-1002.38
-2.06662
-1002.97
-4.78031
-1002.89
-8.84619
-1025.37
-11.3034
-1067.66
-670.719
22.9716
-665.983
22.8364
-1060.48
17.7382
-1018.74
15.6461
-995.883
13.8444
-996.698
11.9657
-996.932
10.0493
-997.579
8.13315
-997.648
6.18392
-998.149
4.21622
-998.367
2.20905
-998.786
0.0824627
-999.118
-2.01568
-999.472
-4.18475
-999.99
-6.36688
-1000.2
-8.62978
-1000.71
-11.0266
-1000.49
-15.4183
-1020.98
-17.2254
-1065.85
-687.945
21.7447
-687.728
20.6839
-1059.42
15.8788
-1013.93
13.8441
-993.848
11.986
-994.84
10.077
-995.023
8.12602
-995.628
6.17654
-995.698
4.19902
-996.171
2.20428
-996.372
0.191676
-996.773
-1.84101
-997.086
-3.89623
-997.417
-6.01606
-997.87
-8.12866
-998.085
-10.2848
-998.551
-12.534
-998.241
-17.1134
-1016.4
-19.1911
-1063.77
-707.136
21.2811
-709.009
19.4233
-1057.56
14.8477
-1009.36
12.858
-991.859
10.9776
-992.96
9.05674
-993.102
7.10139
-993.673
5.15502
-993.752
3.18628
-994.203
1.21284
-994.398
-0.77229
-994.788
-2.78266
-995.075
-4.78586
-995.414
-6.83166
-995.825
-8.85289
-996.064
-10.8981
-996.506
-12.9845
-996.155
-17.4013
-1011.99
-19.9559
-1061.22
-727.092
20.9614
-729.971
18.434
-1055.03
14.1057
-1005.03
12.2215
-989.975
10.3849
-991.123
8.51843
-991.236
6.6171
-991.771
4.72585
-991.861
2.81211
-992.289
0.895882
-992.482
-1.03098
-992.861
-2.97475
-993.132
-4.9141
-993.474
-6.89212
-993.847
-8.84255
-994.113
-10.8164
-994.532
-12.7868
-994.184
-17.0184
-1007.75
-20.1461
-1058.09
-747.238
20.7662
-750.737
17.5826
-1051.85
13.5044
-1000.95
11.7126
-988.183
9.92546
-989.336
8.1157
-989.426
6.27293
-989.929
4.44154
-990.029
2.58797
-990.435
0.734676
-990.629
-1.12935
-990.997
-3.00748
-991.253
-4.87973
-991.602
-6.78643
-991.94
-8.66418
-992.236
-10.5681
-992.628
-12.4312
-992.321
-16.4267
-1003.76
-20.1472
-1054.37
-767.385
20.5897
-771.327
16.772
-1048.03
12.9516
-997.128
11.2554
-986.487
9.52652
-987.607
7.78237
-987.682
6.00569
-988.152
4.2409
-988.264
2.45331
-988.648
0.667701
-988.843
-1.13007
-989.199
-2.93907
-989.444
-4.74414
-989.797
-6.581
-990.103
-8.38972
-990.427
-10.2292
-990.789
-11.998
-990.552
-15.7489
-1000.01
-20.0666
-1050.05
-787.452
20.4353
-791.762
15.9886
-1043.58
12.4324
-993.572
10.8236
-984.878
9.15441
-985.938
7.47589
-986.003
5.76572
-986.442
4.06764
-986.566
2.34623
-986.926
0.62841
-987.125
-1.10333
-987.467
-2.84349
-987.704
-4.58208
-988.058
-6.34938
-988.336
-8.09027
-988.686
-9.86628
-989.013
-11.5488
-988.87
-15.046
-996.511
-19.9601
-1045.14
-807.412
20.2874
-812.049
15.2171
-1038.51
11.9295
-990.285
10.4028
-983.351
8.7948
-984.33
7.18285
-984.391
5.53997
-984.799
3.90918
-984.936
2.2545
-985.272
0.604799
-985.476
-1.06085
-985.802
-2.73193
-986.033
-4.40477
-986.386
-6.10267
-986.638
-7.77699
-987.012
-9.48984
-987.3
-11.0932
-987.267
-14.3334
-993.271
-19.842
-1039.63
-827.254
20.1486
-832.198
14.4565
-1032.82
11.4411
-987.269
9.99031
-981.9
8.44487
-982.784
6.89963
-982.846
5.32417
-983.224
3.76055
-983.372
2.17259
-983.684
0.590621
-983.894
-1.00927
-984.202
-2.61149
-984.431
-4.2196
-984.778
-5.84796
-985.01
-7.45701
-985.403
-9.10626
-985.651
-10.6366
-985.736
-13.6181
-990.289
-19.7192
-1033.53
-846.973
20.0196
-852.218
13.7047
-1026.51
10.9641
-984.529
9.58477
-980.521
8.10394
-981.304
6.62667
-981.369
5.11936
-981.716
3.62358
-981.876
2.10317
-982.163
0.588929
-982.38
-0.944786
-982.668
-2.47803
-982.898
-4.02226
-983.233
-5.58055
-983.451
-7.12607
-983.857
-8.71105
-984.066
-10.1745
-984.273
-12.8982
-987.566
-19.5891
-1026.84
-866.562
19.9101
-872.128
12.9649
-1019.56
10.501
-982.065
9.18942
-979.21
7.77501
-979.889
6.36712
-979.961
4.92794
-980.277
3.5
-980.448
2.04762
-980.711
0.600206
-980.932
-0.866941
-981.201
-2.33148
-981.433
-3.81254
-981.752
-5.29929
-981.965
-6.78314
-982.373
-8.30162
-982.547
-9.70343
-982.871
-12.1714
-985.098
-19.4455
-1019.57
-886.008
19.8437
-891.971
12.2549
-1011.97
10.0743
-979.884
8.8331
-977.968
7.48951
-978.546
6.15538
-978.627
4.78489
-978.907
3.42335
-979.087
2.03712
-979.325
0.651416
-979.547
-0.753597
-979.796
-2.15629
-980.031
-3.58065
-980.328
-5.0004
-980.545
-6.43114
-980.943
-7.88283
-981.095
-9.23022
-981.524
-11.4475
-982.88
-19.2847
-1011.73
-905.292
19.8668
-911.838
11.6131
-1003.72
9.74411
-978.015
8.60075
-976.825
7.3492
-977.294
6.11098
-977.389
4.82705
-977.623
3.54398
-977.804
2.23372
-978.015
0.913501
-978.226
-0.428948
-978.454
-1.7772
-978.683
-3.15499
-978.95
-4.52497
-979.175
-5.92946
-979.538
-7.33314
-979.692
-8.66733
-980.19
-10.672
-980.876
-19.037
-1003.36
-924.329
20.0761
-931.914
11.1014
-994.746
9.58914
-976.503
8.60407
-975.84
7.48241
-976.173
6.37069
-976.277
5.20201
-976.454
4.01679
-976.619
2.79901
-976.797
1.55771
-976.985
0.289194
-977.185
-0.997166
-977.396
-2.31833
-977.629
-3.6394
-977.854
-5.02034
-978.157
-6.37935
-978.333
-7.75889
-978.81
-9.59854
-979.036
-18.4199
-994.542
-942.749
20.7985
-952.713
11.0691
-985.016
9.96423
-975.398
9.25112
-975.127
8.35673
-975.278
7.43143
-975.352
6.42318
-975.446
5.35175
-975.547
4.21262
-975.658
3.00848
-975.781
1.74122
-975.918
0.416658
-976.072
-0.967567
-976.245
-2.38511
-976.436
-3.8743
-976.668
-5.328
-976.879
-6.87848
-977.26
-8.531
-977.384
-17.5626
-985.51
-960.312
22.2871
12.2709
11.8725
11.7455
11.4673
11.1154
10.6694
10.1222
9.46439
8.68336
7.76532
6.69368
5.44878
4.01239
2.34428
0.465148
-1.79439
-4.17808
-14.6882
288.454
345.363
-56.8723
345.39
345.424
345.43
-2204.82
2550.25
-2204.82
-2204.82
-2204.82
-6887.11
4682.29
-6887.12
-6887.12
-13538.9
6651.77
-13538.9
-13538.9
-13538.9
-21867.6
8328.67
-21867.6
-21867.6
-29615.6
7748.04
-29436.6
-29103.9
-28683.6
-28185.6
-27614.6
-26970.1
-26248.7
-25445.8
-29834.5
5275.76
-28872.1
-27819.9
-26675.6
-25433.7
-24082.8
-22602
-20965.1
-19169.2
-17343.5
-16174.2
263.881
-15655.3
-15655.3
-16774
1118.73
-16829
55.0238
-16829
-16322
-506.978
-16322
-15101.9
-1220.15
-13123.9
-1978.03
-13123.9
-10503.1
-2620.77
-10503.1
-7343.43
-3159.69
-4082.15
-3261.29
-4082.16
-934.335
-3147.84
1211.33
-2145.69
1211.32
1508.72
-297.416
1508.7
1508.7
572.047
-572.049
-284.326
856.373
312.752
-597.079
-1232.14
1544.89
-589.565
-642.577
514.727
-1104.29
445.094
69.6334
-596.337
1041.43
-1822.81
1226.47
-2984.53
1161.72
-4023.62
1039.1
-4323.92
300.296
-3087.71
-1236.21
-64.8818
-3022.83
4046.44
-4111.33
7875.69
-3829.25
7945.54
-69.8557
2826.36
5119.17
4335.05
147.881
-719.931
-991.678
1995.93
142.098
-1730.86
-782.565
2469.56
-2542.92
1117.78
-2998.47
-648.74
-2931.33
2.49417
-3195.49
1305.59
-3721.75
1752.73
-4283.53
1723.49
-4770.36
1525.94
-4808.29
338.223
-3562.22
-2482.28
-762.662
-5822.38
3270.32
-8144.31
6917.98
-7476.91
8508.15
-1660.04
5545.08
8082.24
9582.7
-227.899
-492.035
-1457.45
3225.48
-664.74
-2523.56
-1456.25
3261.07
-3601.1
3262.62
-4090.27
-159.574
-3858.87
-228.906
-3884.99
1331.71
-4106.76
1974.5
-4490.14
2106.87
-5010.89
2046.68
-5196.59
523.925
-4088.47
-3590.4
-1495.6
-8415.25
2311.71
-11951.6
5823.1
-10988.3
7739.94
-3576.89
6375.14
9447.04
13812.2
-380.133
-111.903
-2049.57
4894.92
-2571.08
-2002.05
-3200.71
3890.69
-4236.68
4298.59
-4134.54
-261.712
-3886.69
-476.758
-4030.04
1475.06
-4269.74
2214.21
-4684.56
2521.7
-5291.81
2653.93
-5603.86
835.977
-4655.57
-4538.7
-2288.38
-10782.4
1245.79
-15485.8
4640.68
-14383.2
6589.61
-5525.83
6221.95
9814.7
16886.3
-312.535
200.629
-2492.82
7075.2
-4144.66
-350.212
-4621.86
4367.9
-4506.77
4183.5
-3893.07
-875.419
-3823.8
-546.025
-4095.79
1747.06
-4372.91
2491.32
-4831.08
2979.87
-5527.63
3350.48
-5985.29
1293.64
-5218.22
-5305.77
-3082.94
-12917.7
138.557
-18707.3
3362.62
-17607.3
5273.74
-7436.96
5545.96
9542.48
19170.9
-93.3766
294.004
-2501.36
9483.18
-4935.96
2084.39
-5249.62
4681.55
-4304.33
3238.22
-3456.43
-1723.32
-3667.07
-335.386
-4037.45
2117.44
-4344.16
2798.03
-4862.88
3498.59
-5684.2
4171.81
-6308.69
1918.12
-5716.19
-5898.26
-3815.66
-14818.2
-954.075
-21568.9
2031.93
-20593.3
3881.52
-9286.55
4541.42
8882.57
20552.6
138.103
155.898
-2010.81
11632.1
-4912.95
4986.53
-5170.4
4939
-3670.67
1738.49
-2890.32
-2503.67
-3413.38
187.678
-3826.95
2531
-4167.21
3138.29
-4767.17
4098.55
-5732.93
5137.56
-6502.66
2687.86
-6043.31
-6357.61
-4409.28
-16452.3
-1974.75
-24003.4
697.147
-23265.2
2445.31
-11034.7
3359.6
7968.27
21291.5
226.286
-70.3891
-1396.33
13254.7
-4348.35
7938.55
-4560.13
5150.78
-2719.07
-102.565
-2242.96
-2979.79
-3077.68
1022.4
-3475.18
2928.5
-3856.02
3519.13
-4540.85
4783.38
-5624.99
6221.7
-6439.3
3502.17
-6034.69
-6762.23
-4749.34
-17737.6
-2872.97
-25879.8
-617.937
-25520.2
992.678
-12645.3
2099.26
6861.67
21412.7
156.676
-227.068
-901.344
14312.7
-3555.67
10592.9
-3649.6
5244.71
-1730.01
-2022.15
-1624.51
-3085.29
-2645.74
2043.63
-3007.74
3290.5
-3428.47
3939.86
-4174.55
5529.45
-5282.78
7329.93
-5931.43
4150.82
-5504.19
-7189.47
-4755.34
-18486.5
-3616.63
-27018.5
-1871.89
-27264.9
-443.251
-14074
730.48
5687.94
20923
9.60761
-236.677
-608.274
14930.6
-2854.71
12839.3
-2950.3
5340.3
-1325.66
-3646.79
-1310.25
-3100.69
-2132.82
2866.2
-2455.03
3612.71
-2899.45
4384.28
-3654.33
6284.33
-4620.5
8296.1
-4813.37
4343.69
-4381.06
-7621.77
-4465.78
-18401.7
-4207.33
-27276.9
-3019.34
-28452.9
-1823.48
-15269.8
-565.429
4429.88
19850.6
-45.6665
-191.013
-453.782
15338.7
-2475.96
14861.5
-2444.99
5309.34
-1267.05
-4824.73
-1249.49
-3118.26
-1574.08
3190.79
-1840.74
3879.37
-2281.58
4825.12
-2976.85
6979.59
-3628.12
8947.36
-3211
3926.58
-2971.02
-7861.76
-4105.64
-17267.1
-4688.48
-26694.1
-4030.96
-29110.4
-2978.57
-16322.2
-1571.39
3022.69
18334.3
0.417629
-191.432
-598.764
15937.9
-2583.5
16846.2
-1967.32
4693.16
-1060.84
-5731.21
-1141.4
-3037.7
-995.155
3044.55
-1180.31
4064.53
-1586.48
5231.29
-2167.45
7560.56
-2465.34
9245.25
-1762.97
3224.2
-2006.43
-7618.3
-3966.64
-15306.9
-5112.46
-25548.3
-4938.66
-29284.2
-3945.03
-17315.9
-2586.61
1664.27
16866.4
-391.756
200.321
-1583.54
17129.7
-3100.55
18363.2
-1625.74
3218.35
-825.314
-6531.63
-864.578
-2998.44
-385.48
2565.45
-492.895
4171.94
-834.726
5573.12
-1275.48
8001.32
-1329.69
9299.47
-984.612
2879.12
-1879.32
-6723.59
-4082.29
-13103.9
-5457.14
-24173.4
-5787.27
-28954.1
-4827.56
-18275.6
-3273.75
110.458
13856.5
-1961.42
2161.74
-3360.26
18528.5
-3562.3
18565.3
-1421.49
1077.53
-757.331
-7195.79
-454.719
-3301.05
306.932
1803.8
261.442
4217.43
-43.1828
5877.75
-359.74
8317.87
-285.597
9225.32
-530.543
3124.07
-1952.06
-5302.08
-4066.48
-10989.5
-5570.35
-22669.6
-6562.51
-27962
-5552.79
-19285.3
-4025.62
-1416.71
15106.6
-3977.33
6139.07
-4967.82
19519
-3491.58
17089
-1066.43
-1347.61
-701.794
-7560.43
-89.5821
-3913.26
916.894
797.32
1073.5
4060.83
802.312
6148.93
551.414
8568.77
641.695
9135.04
153.195
3612.57
-1385.83
-3763.05
-3409.46
-8965.89
-5233.19
-20845.8
-7245.53
-25949.6
-7962.43
-18568.4
-7164.66
-2214.48
15690
-5248.26
11387.3
-5736.26
20007
-2807.02
14159.8
-396.858
-3757.78
-457.745
-7499.54
151.234
-4522.24
1229.17
-280.616
1731.02
3558.98
1612.76
6267.19
1440.55
8740.98
1505.53
9070.06
1097.55
4020.55
-136.516
-2528.99
-1958.6
-7143.81
-4368.82
-18435.6
-7354.53
-22963.9
-9535.69
-16387.2
-9541.6
-2208.56
14477.1
-5687.26
17074.6
-5767.52
20087.3
-2232.32
10624.6
28.5806
-6018.68
-76.7315
-7394.23
455.452
-5054.42
1357.16
-1182.33
2094.17
2821.98
2250.99
6110.36
2243.99
8747.98
2340.31
8973.75
1977.32
4383.54
1092.91
-1644.59
-279.37
-5771.53
-3242.23
-15472.8
-6930.03
-19276.1
-9369.07
-13948.2
-9395.78
-2181.84
11733.1
-5627.99
22702.6
-5441.35
19900.6
-2087.84
7271.09
-0.395657
-8106.13
299.826
-7694.45
830.393
-5584.99
1509.78
-1861.71
2238.76
2093
2693.66
5655.46
2936.62
8505.02
3104.47
8805.9
2770.53
4717.48
1903.19
-777.246
784.445
-4652.78
-2494.83
-12193.5
-6515.73
-15255.2
-8336.79
-12127.1
-7853.01
-2665.59
8562.35
-5392.52
28095.1
-5073.42
19581.5
-2073.75
4271.42
-104.43
-10075.4
654.846
-8453.73
1221.87
-6152.01
1761.9
-2401.75
2384.48
1470.42
3007.16
5032.79
3520.79
7991.38
3801.11
8525.58
3539.18
4979.41
2569.89
192.037
1166.73
-3249.62
-2544.32
-8482.45
-6587.06
-11212.4
-7321.04
-11393.2
-5978.08
-4008.54
5134.54
-5157.17
-4862.66
-2041.87
-52.2995
1043.77
1650.38
2110.42
2608.27
3226.6
3936.32
4382.79
4231.53
3240.23
1188.14
-3157.2
-7294.67
-7140.31
-4454.16
-677.764
1652.76
-1101.18
1398.41
-1533.79
1407.61
-1882.29
1323.5
-2192.1
1284.81
-2451.94
1234.84
-2669.67
1192.73
-2844.67
1150
-2978.53
1108.87
-3071.49
1067.96
-3123.88
1027.38
-3135.3
986.427
-3103.32
943.013
-3019.48
891.162
-2864.19
819.714
-2605.63
716.438
-2205.55
574.922
-1629.29
398.734
-876.648
222.362
98.3523
-210.29
1863.05
-467.069
1655.19
-738.839
1679.38
-967.656
1552.32
-1187.16
1504.31
-1373.4
1421.08
-1536.43
1355.76
-1671.16
1284.74
-1780.31
1218.01
-1863.42
1151.07
-1921.55
1085.52
-1954.38
1019.25
-1958.6
947.235
-1923.06
855.628
-1824.84
721.491
-1628.09
519.687
-1305.06
251.889
-859.049
-47.2725
-419.72
-216.968
-321.368
-133.987
1997.04
-298.964
1820.17
-424.165
1804.58
-505.213
1633.37
-575.303
1574.4
-612.022
1457.8
-631.937
1375.68
-629.321
1282.12
-608.377
1197.07
-568.783
1111.47
-511.605
1028.34
-437.36
945.006
-347.716
857.592
-247.593
755.505
-148.137
622.036
-64.6567
436.207
-6.96146
194.196
38.6695
-92.9019
-10.8814
-167.416
-332.249
30.7608
1966.28
16.0033
1834.93
28.7893
1791.8
61.1818
1600.97
93.2074
1542.38
145.885
1405.12
203.884
1317.68
276.224
1209.78
357.331
1115.96
447.175
1021.63
543.079
932.437
643.552
844.534
744.922
756.222
837.904
662.523
903.415
556.525
904.959
434.663
796.635
302.519
508.224
195.51
244.221
96.5875
-88.0281
54.3323
1911.95
74.2413
1815.02
109.669
1756.37
144.198
1566.44
177.394
1509.18
216.193
1366.32
249.982
1283.89
285.893
1173.87
319.736
1082.12
359.059
982.307
407.031
884.466
469.088
782.477
551.559
673.751
660.627
553.455
785.512
431.641
875.786
344.389
855.266
323.04
693.375
357.401
401.173
388.79
313.145
-27.9045
1939.85
-52.7544
1839.87
-79.767
1783.38
-126.277
1612.96
-170.302
1553.21
-226.926
1422.94
-294.127
1351.09
-372.182
1251.92
-453.504
1163.44
-520.201
1049
-558.4
922.665
-557.638
781.715
-510.844
626.957
-417.027
459.639
-290.303
304.917
-144.681
198.767
5.15261
173.207
121.99
240.564
139.755
371.025
452.899
-65.5926
2005.45
-166.166
1940.44
-246.715
1863.93
-344.954
1711.19
-442.645
1650.9
-552.318
1532.62
-671.493
1470.27
-800.623
1381.05
-935.108
1297.93
-1061.91
1175.81
-1171.24
1031.99
-1255.84
866.316
-1317.71
688.829
-1362.31
504.238
-1384.27
326.877
-1341.82
156.309
-1184.39
15.7799
-871.965
-71.8601
-416.019
-84.9206
36.8808
63.7184
1941.73
-63.9891
2068.15
-124.798
1924.74
-175.877
1762.27
-220.751
1695.77
-264.819
1576.69
-302.801
1508.25
-336.698
1414.95
-369.412
1330.64
-406.787
1213.19
-450.656
1075.86
-500.682
916.342
-558.354
746.501
-623.469
569.353
-687.128
390.536
-738.307
207.488
-765.79
43.2625
-712.518
-125.133
-485.313
-312.125
-448.433
239.266
1702.46
180.496
2126.92
163.961
1941.28
185.376
1740.86
228.745
1652.4
273.31
1532.12
333.543
1448.01
400.488
1348.01
474.483
1256.65
537.436
1150.23
579.992
1033.31
593.154
903.18
574.459
765.196
522.34
621.472
438.322
474.554
324.966
320.844
207.584
160.645
113.242
-30.7901
3.04234
-201.925
-445.39
277.377
1425.08
303.811
2100.49
307.684
1937.4
347.764
1700.78
416.345
1583.82
483.71
1464.76
560.936
1370.79
640.655
1268.29
725.883
1171.42
805.116
1071
870.224
968.197
911.664
861.74
923.979
752.881
902.984
642.467
846.02
531.518
749.254
417.61
609.407
300.492
413.668
164.949
206.154
5.58957
-239.236
195.005
1230.08
252.423
2043.07
275.146
1914.68
313.792
1662.13
374.146
1523.47
434.294
1404.61
497.344
1307.74
558.641
1206.99
619.602
1110.46
675.164
1015.44
720.5
922.86
749.873
832.367
759.284
743.471
746.312
655.439
709.527
568.303
645.147
481.991
546.072
399.567
399.231
311.79
201.681
203.139
-37.5552
82.0871
1147.99
133.149
1992.01
183.44
1864.39
235.504
1610.07
298.91
1460.06
363.595
1339.92
427.6
1243.73
487.82
1146.77
544.098
1054.18
595.528
964.009
642.035
876.353
684.307
790.095
723.024
704.753
755.366
623.097
770.904
552.765
748.348
504.547
663.994
483.92
499.385
476.399
260.148
442.377
222.592
-48.1633
1196.16
3.78716
1940.06
87.5302
1780.65
151.845
1545.75
213.393
1398.51
275.615
1277.7
342.284
1177.06
417.832
1071.22
505.588
966.425
609.622
859.975
730.576
755.399
864.341
656.329
997.284
571.81
1102.1
518.279
1145.34
509.528
1093.11
556.78
931.208
645.817
665.096
742.511
342.466
765.007
565.059
-149.66
1345.82
-128.279
1918.67
-47.5024
1699.87
-14.9123
1513.16
-18.4438
1402.05
-34.3111
1293.57
-40.9844
1183.74
-28.087
1058.32
9.89734
928.44
76.4315
793.44
171.582
660.248
290.68
537.231
423.173
439.316
552.305
389.147
652.84
408.993
690.389
519.231
629.357
706.849
458.768
913.099
218.82
1004.96
783.878
-102.07
1447.89
-215.221
2031.83
-343.292
1827.94
-469.834
1639.7
-618.562
1550.77
-789.002
1464.01
-960.268
1355
-1122.33
1220.39
-1271.98
1078.08
-1408.91
930.378
-1529.23
780.56
-1622.57
630.579
-1671.38
488.124
-1649.03
366.797
-1529.09
289.051
-1290.43
280.566
-939.966
356.39
-533.268
506.401
-189.368
661.056
594.51
275.91
1171.98
359.564
1948.17
174.684
2012.82
-61.4253
1875.81
-268.412
1757.76
-462.011
1657.61
-656.152
1549.14
-854.37
1418.61
-1054.4
1278.11
-1255.75
1131.73
-1457.35
982.162
-1653.7
826.932
-1831.51
665.929
-1966.52
501.809
-2018.21
340.744
-1926.35
188.698
-1636.01
66.0556
-1140.84
11.2286
-506.257
26.4721
88.2527
606.621
565.354
1031.29
1523.5
1002.22
2041.89
794.321
2083.71
611.915
1940.17
476.865
1792.66
359.21
1666.8
238.277
1539.54
112.189
1404.2
-16.5888
1260.51
-145.11
1110.68
-272.555
954.377
-399.205
792.579
-522.444
625.048
-635.212
453.511
-722.995
276.48
-760.399
103.46
-698.43
-50.7404
-463.552
-208.406
-375.299
525.849
39.5049
781.361
1267.99
790.943
2032.31
742.154
2132.5
714.531
1967.79
718.766
1788.42
742.148
1643.42
768.014
1513.67
787.939
1384.27
798.215
1250.23
796.352
1112.55
778.289
972.441
739.165
831.702
673.701
690.513
577.483
549.73
447.285
406.678
289.175
261.569
137.331
101.104
22.353
-93.4284
-352.946
93.6803
-54.1758
-77.1075
1438.78
-105.1
2060.3
-34.0691
2061.47
64.1763
1869.54
171.879
1680.72
287.5
1527.8
403.609
1397.56
511.443
1276.44
604.067
1157.61
677.433
1039.18
726.652
923.222
750.447
807.907
746.456
694.504
712.018
584.168
644.211
474.485
542.112
363.668
402.119
241.097
219.024
89.6676
-133.922
-573.105
-567.488
-332.904
-67.3494
165.259
365.237
542.072
697.786
829.923
935.268
1012.13
1048.22
1053.24
1026.39
965.99
869.467
735.215
556.012
312.963
)
;

boundaryField
{
    outletWallLeft
    {
        type            calculated;
        value           nonuniform List<scalar> 
40
(
73.7169
-18.5391
-112.075
-207.296
-304.42
-402.976
-503.162
-601.455
-701.813
-792.402
-900.164
-969.334
-1135.78
-1112.67
-1555.58
-1043.21
-2696.23
603.78
-7556.56
9485.21
9846.95
163.389
7754.9
7219.42
12570.9
17412.8
22141
21713.5
13635.8
1374
-7918.31
-12132.5
-11800.7
-18690.2
-13418.4
-36105.1
-14237.1
-98359.5
-88847
237130
)
;
    }
    fineWallsLeft
    {
        type            calculated;
        value           uniform 0;
    }
    fineFrontAndBackLeft
    {
        type            calculated;
        value           nonuniform List<scalar> 
880
(
9.89339e-14
6.64106e-14
3.3839e-13
6.03435e-14
-9.80015e-13
5.2859e-14
5.92024e-13
2.9668e-12
3.04213e-12
5.83695e-13
1.01166e-12
-1.69721e-14
-4.13619e-13
-5.06012e-13
-9.31134e-14
-4.87925e-13
-1.07939e-13
-5.8105e-13
-9.03102e-13
-1.74353e-13
-3.64067e-14
5.01628e-13
-4.61217e-13
-5.34834e-13
-5.07223e-13
-7.23041e-13
-7.11162e-13
-7.04222e-13
-7.38589e-13
-7.38506e-13
-7.79712e-13
-6.37565e-12
-8.30967e-13
-8.46594e-13
-8.68799e-13
-8.86591e-13
-8.93754e-13
-9.19368e-13
-8.46742e-13
-1.00959e-12
-1.15319e-11
-1.58873e-12
-1.48016e-12
-8.82007e-12
-1.33092e-12
-1.30619e-12
-1.28079e-12
-6.88716e-12
-8.58473e-13
-1.11989e-12
5.79141e-12
9.12921e-12
1.52329e-11
2.77162e-11
2.9124e-10
1.03466e-11
2.51365e-12
3.82167e-12
4.13659e-11
5.42628e-12
-3.22712e-12
-6.50826e-12
-3.48464e-12
-7.85275e-13
1.26294e-12
2.60848e-12
1.37863e-12
-2.43891e-12
-6.01449e-12
-4.30371e-12
-5.0309e-12
-7.07919e-12
-8.44176e-12
-9.28637e-12
-1.58843e-11
-2.56651e-11
-2.60991e-11
1.02809e-13
7.90961e-11
-2.52372e-12
-7.14559e-12
-2.22998e-12
-3.10758e-12
-4.87773e-13
2.82394e-12
3.70903e-12
2.23052e-12
-4.66047e-12
-4.6434e-12
-3.89696e-12
-5.16802e-12
-6.8595e-12
-8.71546e-12
-1.46764e-11
-2.54601e-11
-3.31804e-11
-3.43706e-11
8.94834e-11
-5.4264e-13
-7.47756e-12
-4.29467e-12
-7.40566e-12
-4.6325e-12
2.79504e-13
3.67497e-12
4.83583e-12
-1.97425e-12
-5.30406e-12
-4.1199e-12
-4.01196e-12
-5.46337e-12
-8.15262e-12
-1.22499e-11
-1.45054e-11
-9.9954e-12
-1.65091e-11
-2.12292e-11
2.1731e-12
-7.88871e-12
-8.83591e-12
-1.20754e-11
-9.91977e-12
-4.55219e-12
8.51017e-13
4.47984e-12
1.43946e-12
-4.58344e-12
-5.10522e-12
-4.06937e-12
-4.70315e-12
-7.55444e-12
-1.09148e-11
-1.15212e-11
-8.81279e-12
-1.12827e-11
-1.48496e-11
4.58292e-12
-8.57532e-12
-1.3225e-11
-1.5243e-11
-1.4532e-11
-1.02949e-11
-4.26372e-12
1.32467e-12
3.68439e-12
-1.78492e-12
-5.18428e-12
-4.7525e-12
-4.65028e-12
-7.05478e-12
-1.02212e-11
-1.07643e-11
-9.50712e-12
-8.72324e-12
-1.46969e-11
5.7206e-12
-9.3936e-12
-1.43855e-11
-1.51842e-11
-1.66306e-11
-1.50493e-11
-1.02855e-11
-3.6703e-12
3.07024e-12
1.25784e-12
-3.80339e-12
-5.12712e-12
-4.97949e-12
-6.76203e-12
-9.70049e-12
-1.03239e-11
-9.89129e-12
-7.50594e-12
-1.10937e-11
5.23807e-12
-9.92086e-12
-1.05882e-11
-1.10348e-11
-1.49156e-11
-1.69354e-11
-1.52758e-11
-9.22455e-12
-1.01224e-13
2.55936e-12
-1.79306e-12
-4.77998e-12