/*--------------------------------*- C++ -*----------------------------------*\
| =========                 |                                                 |
| \\      /  F ield         | OpenFOAM: The Open Source CFD Toolbox           |
|  \\    /   O peration     | Version:  4.1                                   |
|   \\  /    A nd           | Web:      www.OpenFOAM.org                      |
|    \\/     M anipulation  |                                                 |
\*---------------------------------------------------------------------------*/
FoamFile
{
    version     2.0;
    format      ascii;
    class       volVectorField;
    location    "16";
    object      U;
}
// * * * * * * * * * * * * * * * * * * * * * * * * * * * * * * * * * * * * * //

dimensions      [0 1 -1 0 0 0 0];

internalField   nonuniform List<vector> 
1680
(
(2.72264e-17 -30.5633 -24.9797)
(4.79932e-17 6.17764 -19.6667)
(9.31243e-17 0.41955 -7.78374)
(4.36087e-17 -0.0292291 -1.89397)
(-9.7024e-16 1.30868 -0.921627)
(1.45467e-17 0.785069 0.935755)
(4.2784e-16 0.436893 1.10382)
(8.16458e-16 0.521117 1.59374)
(8.37188e-16 0.504673 1.70612)
(4.386e-16 0.361369 0.901624)
(2.78408e-16 0.334568 0.561634)
(-1.22653e-17 0.413146 0.167806)
(-1.13827e-16 0.457487 -0.152161)
(-1.39253e-16 0.71625 -0.75429)
(-6.72906e-17 0.855653 -0.466525)
(-1.34276e-16 0.964355 -1.10431)
(-7.80045e-17 1.4097 -0.687045)
(-1.59904e-16 0.660983 -1.35221)
(-2.48532e-16 3.7512 -0.828768)
(-1.26e-16 -0.0718133 -3.39711)
(-1.49361e-16 2.70215 2.1288)
(2.01154e-16 1.05915 -2.15214)
(-1.89217e-15 3.83938 5.8466)
(-2.19419e-15 4.39557 6.93145)
(-2.08092e-15 4.58403 7.92657)
(-2.96632e-15 4.71411 8.81511)
(-2.91759e-15 4.87708 9.5904)
(-2.88912e-15 4.94201 10.2436)
(-3.03011e-15 5.10599 10.8277)
(-3.02977e-15 5.00425 11.2312)
(-3.19882e-15 5.42351 11.8863)
(-2.55665e-15 4.80186 9.83449)
(-3.40909e-15 6.94451 13.478)
(-3.4732e-15 7.08212 13.8576)
(-3.5643e-15 7.14575 14.1595)
(-3.63729e-15 7.135 14.4255)
(-3.66668e-15 7.25814 14.6909)
(-3.77177e-15 7.09773 14.8156)
(-3.47381e-15 7.46342 15.6504)
(-4.14189e-15 7.09853 14.3581)
(-4.01459e-15 9.7585 15.9126)
(-2.55217e-15 6.77739 11.3846)
(-2.4012e-15 5.84012 10.7153)
(-3.0588e-15 6.16337 13.7145)
(-2.13803e-15 4.38415 9.6675)
(-2.0983e-15 4.09535 9.45465)
(-2.05749e-15 3.36574 9.21253)
(-2.39762e-15 2.82441 10.5446)
(-1.37907e-15 1.73044 6.60691)
(-1.79903e-15 1.58168 6.63856)
(2.01616e-15 0.336134 4.25709)
(1.46654e-14 1.58758 -3.39851)
(2.44706e-14 -1.66935 -3.20787)
(4.45241e-14 0.497566 -2.20882)
(9.99225e-14 -0.410333 -6.14219)
(1.6621e-14 -0.350026 -2.30352)
(4.038e-15 0.235956 -3.06552)
(6.13923e-15 -0.114053 -3.20702)
(1.44007e-14 -0.0181698 -3.31535)
(8.71691e-15 0.093782 -2.54023)
(-7.17137e-16 -11.9294 7.20202)
(-1.44628e-15 -6.38706 9.73734)
(-7.74365e-16 -0.00823577 6.09459)
(-1.74506e-16 4.35888 1.18541)
(2.80653e-16 3.38932 -1.75885)
(5.79663e-16 2.357 -3.28665)
(3.06362e-16 1.02425 -3.87092)
(-5.41981e-16 -0.255502 -4.48318)
(-1.33655e-15 -1.37502 -4.98157)
(-9.5638e-16 -2.29734 -6.2153)
(-1.11798e-15 -2.60574 -7.50876)
(-1.57315e-15 -1.73008 -8.1423)
(-1.87595e-15 -0.566092 -7.57057)
(-2.06364e-15 -0.0221251 -5.19046)
(-3.52985e-15 0.58323 0.826936)
(-5.70336e-15 1.64502 11.8029)
(-5.7998e-15 3.92752 15.2001)
(2.28465e-17 2.89075 11.6395)
(1.75769e-14 0.327648 2.95574)
(-5.60827e-16 -13.5596 6.29477)
(-1.58791e-15 -6.4113 10.0759)
(-4.9555e-16 1.00493 7.02968)
(-6.90572e-16 5.17808 0.805639)
(-1.08394e-16 3.87118 -2.63118)
(6.27543e-16 2.57375 -4.3608)
(8.24229e-16 1.10913 -4.82239)
(4.95671e-16 -0.162536 -5.03343)
(-1.03566e-15 -1.22535 -5.33827)
(-1.03187e-15 -2.05268 -6.29574)
(-8.65991e-16 -2.38444 -7.54027)
(-1.14845e-15 -1.70417 -8.36335)
(-1.52433e-15 -0.849919 -8.0237)
(-1.93677e-15 -0.934601 -5.79963)
(-3.26142e-15 -0.946615 -0.29429)
(-5.6578e-15 0.156312 10.6294)
(-7.37342e-15 3.69873 14.2742)
(-7.6379e-15 4.05509 14.9802)
(1.98852e-14 2.99878 8.31454)
(-1.20587e-16 -15.1802 4.92547)
(-1.66168e-15 -6.63576 10.7885)
(-9.54372e-16 2.0265 7.97339)
(-1.6457e-15 6.22675 0.155542)
(-1.02944e-15 4.41507 -3.77449)
(6.21119e-17 2.79938 -5.66931)
(8.1666e-16 1.13379 -6.04326)
(1.07463e-15 -0.130997 -5.80734)
(-4.38721e-16 -1.12383 -5.78281)
(-1.17868e-15 -1.8619 -6.47205)
(-9.15534e-16 -2.17725 -7.44203)
(-8.91547e-16 -1.64596 -8.22087)
(-1.21408e-15 -1.08342 -8.0933)
(-1.81169e-15 -1.65701 -6.15049)
(-2.7222e-15 -2.26178 -3.09019)
(-3.22342e-15 -1.31017 6.57811)
(-2.2212e-15 3.04113 8.68154)
(-3.66869e-15 4.22729 13.8757)
(-4.71761e-15 4.35251 12.4227)
(4.82911e-16 -16.781 3.37246)
(-1.75305e-15 -7.08194 11.7378)
(-1.96354e-15 3.20217 8.75666)
(-2.68343e-15 7.50692 -0.795791)
(-2.20439e-15 5.02179 -5.26783)
(-1.0116e-15 3.03392 -7.26639)
(1.89115e-16 1.10624 -7.57699)
(9.9552e-16 -0.183526 -6.95918)
(3.1988e-16 -1.08923 -6.33737)
(-1.01854e-15 -1.72768 -6.73134)
(-1.13449e-15 -2.02198 -7.41994)
(-9.04304e-16 -1.59091 -7.99076)
(-1.04514e-15 -1.27041 -7.95697)
(-1.67876e-15 -2.06564 -6.30946)
(-2.42551e-15 -3.25709 -5.32449)
(-2.56027e-15 -2.48043 2.13012)
(-1.9584e-15 2.17157 0.822086)
(-2.50726e-15 3.34712 9.5718)
(-3.29992e-15 4.89301 13.7466)
(1.01843e-15 -18.369 1.99513)
(-1.90563e-15 -7.72792 12.8524)
(-2.93889e-15 4.59804 9.32355)
(-3.38732e-15 9.03578 -2.14659)
(-3.22934e-15 5.6882 -7.20268)
(-2.28776e-15 3.27144 -9.23047)
(-9.47493e-16 1.03829 -9.45031)
(2.94371e-16 -0.338555 -8.52397)
(8.18753e-16 -1.16775 -7.1567)
(-3.9665e-16 -1.65401 -6.99386)
(-1.15206e-15 -1.91437 -7.45243)
(-1.05611e-15 -1.5565 -7.82999)
(-1.0334e-15 -1.42109 -7.77798)
(-1.56773e-15 -2.26824 -6.40476)
(-2.27138e-15 -3.81569 -6.37534)
(-2.39207e-15 -2.89616 -2.05322)
(-2.11269e-15 1.38605 -3.80211)
(-1.9385e-15 1.66753 2.96332)
(-3.26598e-15 4.34522 11.0778)
(1.27124e-15 -20.0074 1.05553)
(-2.08747e-15 -8.51177 14.0775)
(-3.19678e-15 6.25229 9.23452)
(-3.37426e-15 10.8297 -4.00404)
(-3.69568e-15 6.41021 -9.66306)
(-3.34428e-15 3.49934 -11.6625)
(-2.28566e-15 0.927159 -11.7184)
(-8.15622e-16 -0.594179 -10.446)
(6.82276e-16 -1.39689 -8.39718)
(2.79521e-16 -1.67718 -7.36483)
(-8.45197e-16 -1.84684 -7.46811)
(-1.13936e-15 -1.54489 -7.73525)
(-1.10655e-15 -1.55276 -7.64177)
(-1.50267e-15 -2.39985 -6.49874)
(-2.15567e-15 -4.01064 -6.58239)
(-2.2942e-15 -2.96664 -5.15876)
(-2.19806e-15 0.94017 -4.94582)
(-1.66799e-15 0.467327 -2.26865)
(-2.46528e-15 3.31595 4.8787)
(1.16402e-15 -21.7276 0.550754)
(-2.20464e-15 -9.29938 15.3437)
(-2.35294e-15 8.24998 7.92944)
(-2.45217e-15 12.8478 -6.4395)
(-3.31458e-15 7.18359 -12.6478)
(-3.76343e-15 3.70837 -14.6124)
(-3.39461e-15 0.753842 -14.457)
(-2.0499e-15 -0.953706 -12.7102)
(-2.24943e-17 -1.78912 -10.0465)
(5.68746e-16 -1.84656 -8.02247)
(-3.98458e-16 -1.8323 -7.50623)
(-1.06222e-15 -1.53473 -7.65715)
(-1.18118e-15 -1.65763 -7.56305)
(-1.48368e-15 -2.51947 -6.58292)
(-2.05423e-15 -3.99343 -6.46034)
(-2.19378e-15 -3.05925 -6.66816)
(-2.07664e-15 0.495246 -6.1782)
(-1.90164e-15 0.172515 -3.16392)
(-1.01427e-15 -0.146935 -3.5843)
(7.76703e-16 -23.6279 0.258913)
(-2.18542e-15 -9.91464 16.5737)
(-7.06525e-16 10.6385 5.10904)
(-7.80798e-16 14.9859 -9.39175)
(-2.04148e-15 7.99723 -15.8848)
(-3.27022e-15 3.90074 -17.8068)
(-3.83795e-15 0.505675 -17.5742)
(-3.11128e-15 -1.43204 -15.3281)
(-1.00417e-15 -2.34506 -12.0202)
(3.8882e-16 -2.18877 -9.03052)
(-2.79215e-17 -1.9173 -7.67617)
(-8.41822e-16 -1.55287 -7.5804)
(-1.20038e-15 -1.7624 -7.52023)
(-1.49344e-15 -2.6569 -6.63576)
(-1.97181e-15 -3.91806 -6.28464)
(-2.08931e-15 -3.04742 -6.97633)
(-1.98763e-15 0.0207302 -6.45071)
(-1.65324e-15 0.111545 -3.33638)
(-1.46187e-15 0.307548 -6.32618)
(2.70786e-16 -25.5695 -0.101832)
(-2.0416e-15 -10.1985 17.8281)
(1.06405e-15 13.4511 1.01301)
(1.17413e-15 17.103 -12.5945)
(-1.89922e-16 8.80944 -18.4134)
(-1.91467e-15 4.12064 -19.8754)
(-3.34134e-15 0.22986 -20.2049)
(-3.71771e-15 -2.01194 -18.0884)
(-2.00515e-15 -3.06073 -14.2448)
(-1.25809e-16 -2.71371 -10.3441)
(1.51986e-16 -2.11603 -8.06679)
(-5.33215e-16 -1.56764 -7.5398)
(-1.12767e-15 -1.82466 -7.4758)
(-1.5059e-15 -2.79133 -6.63483)
(-1.90642e-15 -3.85965 -6.10059)
(-1.97845e-15 -3.01029 -6.67489)
(-1.81972e-15 -0.375847 -6.0429)
(-1.48906e-15 0.0662202 -3.95488)
(-1.04966e-15 -0.0883626 -2.76808)
(-2.00074e-16 -27.8585 -0.689174)
(-1.83143e-15 -10.0593 19.2052)
(2.49304e-15 16.7228 -3.90323)
(2.82289e-15 18.9647 -15.1743)
(1.51539e-15 9.42837 -17.9723)
(-2.88512e-16 4.44617 -17.0836)
(-2.03749e-15 0.220776 -19.3427)
(-3.69439e-15 -2.5378 -19.9467)
(-2.83341e-15 -3.90941 -16.543)
(-8.08656e-16 -3.41559 -11.8708)
(1.23399e-16 -2.48477 -8.675)
(-1.98887e-16 -1.70252 -7.59421)
(-9.46725e-16 -1.95171 -7.42567)
(-1.49337e-15 -2.96957 -6.56993)
(-1.84477e-15 -3.86446 -5.86716)
(-1.84398e-15 -3.03793 -6.12744)
(-1.5998e-15 -0.683225 -5.45361)
(-1.25036e-15 -0.272024 -3.50594)
(-8.36297e-16 -0.298012 -2.76708)
(-5.38503e-16 -29.7778 -1.58876)
(-1.60168e-15 -9.41907 21.0904)
(3.40635e-15 20.3271 -9.13827)
(3.61287e-15 20.0262 -15.4673)
(2.13709e-15 9.07042 -11.5119)
(5.63438e-16 4.42149 -5.00977)
(-6.91833e-16 0.671875 -9.49005)
(-3.12151e-15 -2.43419 -18.095)
(-3.35708e-15 -4.6537 -18.2864)
(-1.51673e-15 -4.2733 -13.5318)
(-8.4888e-17 -2.95983 -9.52406)
(7.10574e-17 -1.78603 -7.86845)
(-6.96644e-16 -1.9749 -7.42569)
(-1.44273e-15 -3.10559 -6.42733)
(-1.76801e-15 -3.89613 -5.53259)
(-1.67005e-15 -3.08762 -5.49041)
(-1.34109e-15 -0.96948 -4.80669)
(-9.60559e-16 -0.451541 -2.96503)
(-5.79439e-16 -0.499259 -2.48312)
(-7.03061e-16 -32.9789 -2.669)
(-1.38036e-15 -8.45824 23.4301)
(3.86493e-15 24.0338 -13.9722)
(3.3596e-15 19.5149 -12.1866)
(1.346e-15 6.86173 0.140669)
(3.58433e-16 4.0499 9.09446)
(-2.31698e-16 2.51408 1.20244)
(-2.23784e-15 -1.03378 -11.0888)
(-3.52795e-15 -4.87127 -18.3177)
(-2.14011e-15 -5.14845 -15.1263)
(-4.30352e-16 -3.63957 -10.611)
(1.76409e-16 -2.20503 -8.43051)
(-4.74126e-16 -2.31344 -7.55996)
(-1.36491e-15 -3.42162 -6.2322)
(-1.65817e-15 -4.04633 -5.09423)
(-1.45144e-15 -3.20678 -4.82788)
(-1.058e-15 -1.27158 -4.17024)
(-6.76609e-16 -0.690805 -2.49057)
(-3.40494e-16 -0.689733 -2.03346)
(-6.95587e-16 -33.8787 -3.99448)
(-1.08692e-15 -6.74411 27.2984)
(4.03002e-15 27.5084 -17.7707)
(2.43289e-15 17.3584 -6.05583)
(2.85943e-16 4.46341 7.25468)
(2.37394e-16 4.64294 10.2123)
(-6.71969e-17 4.28572 3.12628)
(-8.98275e-16 1.64153 0.764989)
(-3.30559e-15 -3.87716 -15.2677)
(-2.61733e-15 -5.77476 -16.1587)
(-8.72482e-16 -4.26578 -11.9825)
(7.03286e-17 -2.25524 -9.36954)
(-3.69917e-16 -2.22889 -7.82816)
(-1.28278e-15 -3.51398 -5.94105)
(-1.50415e-15 -4.09016 -4.54008)
(-1.19589e-15 -3.23466 -4.14927)
(-7.75041e-16 -1.43623 -3.5547)
(-4.30223e-16 -0.807393 -2.0779)
(-1.58836e-16 -0.816682 -1.5663)
(-5.61494e-16 -40.8259 -5.10402)
(-7.22045e-16 -5.86598 30.8679)
(4.05326e-15 30.3924 -20.4096)
(1.49157e-15 14.7155 0.649485)
(-7.1561e-17 3.29498 4.94766)
(1.99117e-16 5.14224 8.17996)
(2.10263e-16 4.59623 3.77535)
(-2.57059e-16 3.09954 5.04934)
(-2.84061e-15 -1.94683 -10.6858)
(-2.9161e-15 -5.81024 -16.1643)
(-1.35452e-15 -5.05286 -13.3496)
(-2.10212e-16 -3.31118 -10.5077)
(-4.03844e-16 -3.3417 -8.18251)
(-1.20325e-15 -4.33674 -5.61623)
(-1.30487e-15 -4.5304 -3.9634)
(-9.23407e-16 -3.51188 -3.51959)
(-5.19322e-16 -1.795 -3.01973)
(-2.39684e-16 -1.16093 -1.77047)
(-4.5086e-17 -1.10884 -1.19217)
(-2.58195e-16 -35.476 -6.42034)
(1.88429e-16 -1.79882 39.2305)
(4.03644e-15 33.4478 -22.2427)
(8.04336e-16 12.4444 7.44409)
(-7.15962e-17 2.62511 0.6672)
(7.05133e-17 5.13023 7.63379)
(2.08657e-16 4.72875 2.82982)
(-7.11747e-17 4.34374 4.91624)
(-1.90618e-15 0.57654 -3.71466)
(-2.97004e-15 -5.18251 -14.6713)
(-1.81237e-15 -5.30185 -14.5585)
(-5.85616e-16 -2.77199 -11.8226)
(-5.31725e-16 -2.48777 -8.40371)
(-1.11568e-15 -3.85631 -5.05093)
(-1.06911e-15 -4.1498 -3.25816)
(-6.58792e-16 -3.1811 -2.85156)
(-3.10586e-16 -1.59295 -2.4674)
(-1.09297e-16 -0.962535 -1.43278)
(4.83415e-17 -1.21941 -0.736309)
(-2.02723e-16 -59.2646 -6.13044)
(1.34739e-15 -4.97584 37.9467)
(4.00809e-15 37.1865 -23.6614)
(2.53594e-16 10.5668 14.904)
(-3.68062e-18 3.18112 -2.16444)
(-8.51946e-18 5.10804 7.68354)
(6.80344e-17 5.1403 1.33296)
(3.83819e-17 4.65193 4.59948)
(-6.05921e-16 2.24223 2.57562)
(-2.72801e-15 -3.71347 -11.714)
(-2.16198e-15 -5.7697 -14.8423)
(-9.52087e-16 -5.5086 -12.6086)
(-6.74672e-16 -6.12932 -8.51336)
(-9.96042e-16 -6.5427 -4.67848)
(-8.18146e-16 -5.77729 -2.81594)
(-4.28586e-16 -4.27933 -2.41979)
(-1.592e-16 -2.56054 -2.1392)
(-3.21466e-17 -1.96526 -1.34006)
(7.74839e-17 -1.82007 -0.586903)
(1.22837e-15 -20.3157 -10.8168)
(3.54013e-15 4.99088 55.0229)
(3.978e-15 38.0983 -24.7702)
(-1.65315e-16 8.50385 21.8486)
(5.62381e-17 3.57936 -4.31872)
(-1.00273e-17 4.71169 7.68879)
(4.09399e-18 5.1394 0.451383)
(1.2105e-16 4.22382 3.91379)
(-6.76971e-17 3.49818 3.34296)
(-2.26076e-15 -1.85995 -8.14332)
(-2.31365e-15 -4.90309 -14.6097)
(-1.21982e-15 -2.16759 -13.1375)
(-7.63814e-16 -1.12511 -7.81025)
(-8.37678e-16 -2.40679 -3.42818)
(-5.71093e-16 -2.61306 -1.70111)
(-2.44622e-16 -1.82008 -1.47439)
(-6.12769e-17 -0.645758 -1.37082)
(4.29778e-18 -0.144314 -0.809209)
(9.95384e-17 -1.58322 -0.100251)
(-2.61653e-15 -124.028 8.25279)
(2.41394e-15 10.202 35.9081)
(3.94531e-15 34.9697 -25.4154)
(-3.68384e-16 5.53652 30.4725)
(6.19571e-17 3.12845 -5.02988)
(-1.49535e-18 3.72948 7.54313)
(9.47604e-19 4.83018 0.159286)
(7.57524e-17 3.5446 2.65816)
(7.59486e-18 3.98605 2.43124)
(-1.51024e-15 0.019131 -2.93446)
(-2.19568e-15 -5.04848 -12.3525)
(-1.33882e-15 -10.3559 -12.816)
(-7.80257e-16 -14.0453 -8.56095)
(-6.58676e-16 -13.5225 -4.57801)
(-3.72339e-16 -10.8076 -2.7397)
(-1.22622e-16 -7.97385 -2.25093)
(-8.65813e-18 -5.42136 -2.0433)
(1.48398e-17 -4.79145 -1.76801)
(1.10112e-16 -2.69562 -0.626806)
(1.53597e-14 95.5946 -80.2464)
(1.36498e-15 -32.752 107.927)
(3.73132e-15 52.1579 -25.474)
(-4.14817e-16 4.58535 46.3245)
(3.19526e-17 11.5596 -3.33187)
(-4.40099e-19 4.92456 6.92667)
(1.41253e-18 7.50731 0.154957)
(9.76181e-18 4.75225 1.67495)
(4.93447e-18 5.39084 1.77089)
(-4.23778e-16 1.36494 3.65459)
(-1.77208e-15 -2.73279 -10.7379)
(-1.11239e-15 3.93807 -9.26268)
(-5.8729e-16 10.1433 -1.39051)
(-4.03761e-16 9.81324 2.90138)
(-1.61813e-16 8.08879 3.78139)
(-2.80037e-17 6.97524 3.11661)
(1.26011e-17 5.88154 2.23806)
(1.68222e-17 5.97018 2.38689)
(7.84254e-17 -0.607234 1.2052)
(-6.00902e-14 -354.052 288.722)
(4.25844e-15 74.5949 -88.0822)
(2.65836e-15 63.7119 -17.9965)
(-1.95385e-16 6.94524 37.4244)
(1.76602e-18 17.0112 -0.373615)
(-5.6506e-20 6.22861 3.45886)
(-1.15347e-19 8.68188 0.115585)
(-3.27331e-18 5.49984 0.651326)
(2.1293e-17 5.87256 0.655089)
(2.0953e-17 4.16657 2.76613)
(-1.55639e-15 -3.04667 -6.1798)
(-1.76691e-15 -23.4869 -20.0578)
(-1.08667e-15 -37.931 -24.3682)
(-5.31253e-16 -37.5332 -23.7229)
(-2.01586e-16 -29.8768 -21.679)
(-3.92194e-17 -22.7207 -19.1779)
(1.89769e-17 -15.784 -15.1263)
(2.70762e-17 -15.1955 -15.6293)
(2.29276e-17 -2.7409 -4.68351)
(-2.95773e-17 5.20894 9.54032)
(-5.92279e-15 9.83646 16.8232)
(-5.17369e-15 9.99776 17.095)
(-5.10035e-15 9.72942 16.3712)
(-4.7824e-15 9.67664 16.1818)
(-7.07974e-15 9.72491 16.1303)
(-5.40558e-15 9.74401 16.1005)
(-4.84323e-15 9.77319 16.0713)
(-5.11648e-15 9.77694 16.0489)
(-4.54946e-15 9.80566 16.0475)
(-4.65845e-15 9.78612 16.0257)
(-4.69727e-15 9.70976 15.8299)
(-4.91293e-15 9.75636 15.9812)
(-4.8242e-15 9.76389 16.0477)
(-4.73215e-15 9.74942 16.0768)
(-4.63003e-15 9.70514 16.1223)
(-4.85757e-15 9.69285 16.1236)
(-4.82739e-15 9.78577 16.515)
(-4.37874e-15 10.3013 17.1989)
(-6.80872e-15 6.42764 11.219)
(1.18196e-16 4.80706 8.05903)
(-4.59113e-15 9.23698 15.7815)
(-3.98991e-15 9.0967 15.5669)
(-3.98801e-15 8.77794 15.0193)
(-3.77167e-15 8.76354 15.0259)
(-6.09389e-15 8.80322 15.0614)
(-4.05369e-15 8.81122 15.0952)
(-4.06154e-15 8.83556 15.1178)
(-4.21826e-15 8.84908 15.1497)
(-3.82797e-15 8.86584 15.1734)
(-3.86635e-15 8.8844 15.2079)
(-3.92819e-15 8.92413 15.2787)
(-4.40833e-15 8.93718 15.2766)
(-3.92443e-15 8.94063 15.3046)
(-3.73893e-15 8.96379 15.3319)
(-3.89981e-15 8.95869 15.3683)
(-4.24404e-15 8.98526 15.3924)
(-4.05296e-15 9.16265 15.7748)
(-4.00665e-15 9.5568 16.4098)
(-5.9061e-15 5.70785 9.93303)
(-1.1449e-17 5.50639 9.58367)
(-1.92108e-15 9.60969 16.4307)
(-1.12384e-15 9.30574 16.0315)
(-1.52409e-15 9.06071 15.5468)
(-1.50055e-15 9.026 15.5316)
(-3.66632e-15 9.04437 15.5302)
(-2.02992e-15 9.03254 15.5352)
(-1.73011e-15 9.03971 15.5309)
(-1.7817e-15 9.03299 15.5344)
(-1.92629e-15 9.03699 15.5355)
(-1.73781e-15 9.03413 15.5385)
(-1.96433e-15 9.02773 15.534)
(-2.14852e-15 9.03023 15.5457)
(-1.9272e-15 9.02729 15.5576)
(-1.86568e-15 9.03389 15.5611)
(-1.8127e-15 9.01792 15.5734)
(-1.72616e-15 9.03477 15.5723)
(-1.95327e-15 9.20203 15.9414)
(-2.0326e-15 9.60564 16.5553)
(-2.75184e-15 5.81178 10.1921)
(-2.401e-19 5.57229 9.59482)
(4.04566e-16 9.46952 16.2502)
(3.1564e-16 9.12145 15.7278)
(3.42214e-16 8.90063 15.3082)
(3.41287e-16 8.88046 15.3166)
(-2.28129e-15 8.90021 15.3254)
(-1.91702e-15 8.89174 15.339)
(-1.61038e-15 8.90091 15.3428)
(-1.77021e-15 8.89698 15.354)
(-1.94798e-15 8.9022 15.3602)
(-1.46251e-15 8.90163 15.37)
(-2.02455e-15 8.90517 15.381)
(-2.07306e-15 8.90768 15.3874)
(-1.97443e-15 8.90496 15.399)
(-1.75073e-15 8.91277 15.4045)
(-1.84036e-15 8.90079 15.4164)
(-1.83329e-15 8.91682 15.4181)
(-1.73036e-15 9.09192 15.7795)
(-1.77674e-15 9.48634 16.4141)
(-2.89057e-15 5.81545 10.162)
(7.64989e-19 5.8483 10.1212)
(-9.54048e-17 9.52653 16.3458)
(-8.23827e-17 9.11556 15.7368)
(-7.94941e-17 8.92573 15.3619)
(-8.27482e-17 8.90434 15.3716)
(4.84651e-16 8.91965 15.3743)
(4.55189e-16 8.90813 15.3835)
(4.07716e-16 8.91391 15.3835)
(4.36253e-16 8.90707 15.3904)
(4.39025e-16 8.90945 15.393)
(4.09482e-16 8.90593 15.3987)
(4.52195e-16 8.90523 15.403)
(4.91393e-16 8.90506 15.408)
(4.39694e-16 8.90144 15.4158)
(4.34658e-16 8.90598 15.4183)
(4.18145e-16 8.8936 15.4258)
(4.15302e-16 8.90619 15.4228)
(4.58326e-16 9.06534 15.7549)
(4.68747e-16 9.47884 16.4228)
(6.29826e-16 5.97316 10.4556)
(-3.37591e-19 6.02006 10.3973)
(2.34353e-17 9.49028 16.2997)
(2.06821e-17 9.04915 15.6243)
(1.87515e-17 8.88233 15.2954)
(2.01534e-17 8.86596 15.3101)
(-1.14361e-16 8.88035 15.3138)
(-1.06362e-16 8.87027 15.3239)
(-1.0232e-16 8.87617 15.3254)
(-1.07643e-16 8.87027 15.3333)
(-9.99017e-17 8.87296 15.3368)
(-1.05944e-16 8.86988 15.3435)
(-1.0306e-16 8.87026 15.349)
(-1.14808e-16 8.86991 15.3543)
(-1.07163e-16 8.86722 15.362)
(-1.0097e-16 8.87106 15.3655)
(-1.04714e-16 8.86086 15.3732)
(-1.03393e-16 8.87059 15.3692)
(-1.07794e-16 9.01363 15.6671)
(-1.04678e-16 9.44683 16.3793)
(-1.42959e-16 6.13024 10.7214)
(1.13121e-19 6.2234 10.7528)
(-5.6841e-18 9.48342 16.2913)
(-4.97677e-18 9.01396 15.5672)
(-4.45973e-18 8.87014 15.2784)
(-4.91111e-18 8.85543 15.2946)
(2.83339e-17 8.86804 15.2968)
(2.48123e-17 8.85804 15.3056)
(2.51933e-17 8.863 15.3066)
(2.54374e-17 8.857 15.3135)
(2.29989e-17 8.85909 15.3164)
(2.52876e-17 8.85563 15.3223)
(2.40068e-17 8.85573 15.3267)
(2.62801e-17 8.85463 15.3318)
(2.63709e-17 8.85235 15.3383)
(2.41014e-17 8.85494 15.3416)
(2.56123e-17 8.8462 15.3485)
(2.47111e-17 8.85321 15.3431)
(2.44318e-17 8.97798 15.6044)
(2.32512e-17 9.4281 16.35)
(3.28741e-17 6.30985 11.0336)
(-3.35953e-20 6.40955 11.0671)
(1.35545e-18 9.45627 16.2515)
(1.16788e-18 8.97039 15.4925)
(1.06433e-18 8.8474 15.2429)
(1.20198e-18 8.83513 15.2604)
(-6.91127e-18 8.84653 15.2624)
(-5.87321e-18 8.83741 15.271)
(-6.014e-18 8.84201 15.2724)
(-6.06896e-18 8.83656 15.2792)
(-5.51759e-18 8.83858 15.2823)
(-5.83378e-18 8.83531 15.2882)
(-5.7393e-18 8.83572 15.2926)
(-5.918e-18 8.83436 15.2979)
(-6.24741e-18 8.83286 15.3039)
(-5.8353e-18 8.83461 15.3079)
(-6.09251e-18 8.82771 15.3146)
(-5.78811e-18 8.83247 15.3091)
(-5.52935e-18 8.93997 15.5348)
(-5.40152e-18 9.40046 16.304)
(-7.65631e-18 6.48837 11.3399)
(9.29754e-21 6.59946 11.3919)
(-3.18886e-19 9.42936 16.21)
(-2.71635e-19 8.93388 15.4303)
(-2.53106e-19 8.83066 15.2169)
(-2.92156e-19 8.81991 15.2347)
(1.63376e-18 8.83003 15.2362)
(1.39841e-18 8.82155 15.2442)
(1.42839e-18 8.82559 15.2456)
(1.45373e-18 8.82054 15.252)
(1.35229e-18 8.82228 15.2549)
(1.36584e-18 8.8191 15.2607)
(1.39328e-18 8.81961 15.2647)
(1.33242e-18 8.81791 15.27)
(1.4476e-18 8.81704 15.2754)
(1.41188e-18 8.81787 15.2797)
(1.42033e-18 8.81261 15.286)
(1.3707e-18 8.81541 15.2808)
(1.29267e-18 8.90639 15.4726)
(1.30452e-18 9.37025 16.2523)
(1.78597e-18 6.6693 11.6515)
(-2.45272e-21 6.78557 11.7084)
(7.41251e-20 9.39439 16.1551)
(6.34246e-20 8.89787 15.3685)
(5.98468e-20 8.81288 15.1891)
(6.9883e-20 8.8035 15.2068)
(-3.79172e-19 8.8125 15.208)
(-3.34707e-19 8.80479 15.2155)
(-3.40442e-19 8.80837 15.2172)
(-3.44832e-19 8.80382 15.2233)
(-3.29612e-19 8.80536 15.2263)
(-3.27704e-19 8.8024 15.2318)
(-3.37859e-19 8.80305 15.2357)
(-3.06114e-19 8.80114 15.2411)
(-3.37204e-19 8.80091 15.2461)
(-3.37594e-19 8.80092 15.2508)
(-3.25809e-19 8.79732 15.2567)
(-3.27365e-19 8.79843 15.2524)
(-3.12021e-19 8.8743 15.4125)
(-3.17439e-19 9.33402 16.1901)
(-4.11648e-19 6.84907 11.9605)
(6.25951e-22 6.97114 12.0245)
(-1.70529e-20 9.35482 16.0919)
(-1.49566e-20 8.86503 15.3122)
(-1.40995e-20 8.79678 15.1641)
(-1.64285e-20 8.78839 15.181)
(8.7429e-20 8.79631 15.182)
(8.0581e-20 8.78933 15.189)
(8.08194e-20 8.79241 15.1908)
(8.10723e-20 8.78836 15.1966)
(7.92867e-20 8.78963 15.1996)
(7.91331e-20 8.78691 15.205)
(8.10366e-20 8.7876 15.2086)
(7.22674e-20 8.78554 15.2141)
(7.98077e-20 8.78586 15.2186)
(7.96614e-20 8.78508 15.2238)
(7.44487e-20 8.78303 15.2291)
(7.79448e-20 8.78266 15.2261)
(7.60555e-20 8.84485 15.3569)
(7.65667e-20 9.29286 16.1192)
(9.32795e-20 7.0283 12.2687)
(-1.56286e-22 7.15503 12.3375)
(3.8951e-21 9.30929 16.0185)
(3.55764e-21 8.83428 15.2594)
(3.32046e-21 8.78113 15.1399)
(3.81289e-21 8.77353 15.1556)
(-2.01323e-20 8.78046 15.1566)
(-1.93966e-20 8.77423 15.1631)
(-1.89971e-20 8.77682 15.1651)
(-1.90632e-20 8.7733 15.1705)
(-1.88787e-20 8.77428 15.1736)
(-1.89227e-20 8.77186 15.1787)
(-1.916e-20 8.77255 15.1823)
(-1.73219e-20 8.77042 15.1878)
(-1.90731e-20 8.77123 15.1918)
(-1.86075e-20 8.76974 15.1974)
(-1.71992e-20 8.76916 15.2021)
(-1.8419e-20 8.76748 15.2007)
(-1.83944e-20 8.81758 15.305)
(-1.83097e-20 9.24622 16.039)
(-2.09163e-20 7.20647 12.5748)
(3.85169e-23 7.3378 12.6486)
(-8.87069e-22 9.25841 15.9358)
(-8.492e-22 8.80611 15.2109)
(-7.83998e-22 8.76636 15.1171)
(-8.80947e-22 8.75935 15.1314)
(4.64779e-21 8.76537 15.1324)
(4.62551e-21 8.75985 15.1384)
(4.42939e-21 8.76196 15.1406)
(4.51163e-21 8.75896 15.1456)
(4.46134e-21 8.75963 15.1488)
(4.45823e-21 8.75756 15.1536)
(4.4724e-21 8.75816 15.1572)
(4.14425e-21 8.75605 15.1626)
(4.55583e-21 8.75724 15.1663)
(4.31908e-21 8.75513 15.1722)
(4.03768e-21 8.7559 15.1763)
(4.32661e-21 8.75305 15.1767)
(4.39503e-21 8.79273 15.2572)
(4.36682e-21 9.19428 15.9497)
(4.69493e-21 7.38372 12.8792)
(-9.4358e-24 7.51934 12.9575)
(2.02288e-22 9.20191 15.8434)
(2.02427e-22 8.78031 15.1666)
(1.86024e-22 8.75222 15.0953)
(2.04504e-22 8.74564 15.1081)
(-1.08047e-21 8.75084 15.1091)
(-1.08782e-21 8.74602 15.1147)
(-1.02964e-21 8.74766 15.117)
(-1.07458e-21 8.7452 15.1216)
(-1.04637e-21 8.74554 15.1249)
(-1.03733e-21 8.74386 15.1295)
(-1.0365e-21 8.74431 15.133)
(-9.81814e-22 8.74233 15.1383)
(-1.08134e-21 8.74376 15.1417)
(-1.00107e-21 8.74118 15.1479)
(-9.57404e-22 8.74315 15.1514)
(-1.01383e-21 8.73923 15.1537)
(-1.04079e-21 8.77023 15.2133)
(-1.04324e-21 9.13695 15.8513)
(-1.06306e-21 7.56 13.1816)
(2.30979e-24 7.69989 13.2645)
(-4.63583e-23 9.13992 15.7414)
(-4.80633e-23 8.75695 15.1265)
(-4.4399e-23 8.73877 15.0745)
(-4.80024e-23 8.73251 15.0858)
(2.53443e-22 8.73697 15.0868)
(2.53086e-22 8.73282 15.0919)
(2.39436e-22 8.73398 15.0945)
(2.56363e-22 8.73205 15.0987)
(2.43643e-22 8.73206 15.1021)
(2.39635e-22 8.73077 15.1064)
(2.40264e-22 8.73101 15.1099)
(2.30933e-22 8.72928 15.115)
(2.54879e-22 8.73077 15.1183)
(2.33006e-22 8.72792 15.1246)
(2.27275e-22 8.73089 15.1275)
(2.3779e-22 8.72601 15.1316)
(2.45295e-22 8.75008 15.1733)
(2.49604e-22 9.07421 15.7438)
(2.42776e-22 7.73531 13.4819)
(-5.66779e-25 7.87976 13.5702)
(1.07025e-23 9.0725 15.6298)
(1.13641e-23 8.73614 15.0909)
(1.06443e-23 8.72618 15.055)
(1.14047e-23 8.72014 15.0647)
(-5.98764e-23 8.72388 15.0658)
(-5.87418e-23 8.72045 15.0704)
(-5.57519e-23 8.7211 15.0731)
(-6.08809e-23 8.71966 15.077)
(-5.64871e-23 8.71937 15.0804)
(-5.52686e-23 8.71842 15.0844)
(-5.60255e-23 8.71839 15.088)
(-5.42909e-23 8.71701 15.0927)
(-5.97752e-23 8.71831 15.096)
(-5.47022e-23 8.71547 15.1022)
(-5.37674e-23 8.71909 15.1046)
(-5.59312e-23 8.71341 15.1105)
(-5.76632e-23 8.73225 15.1373)
(-5.95926e-23 9.00613 15.6274)
(-5.56188e-23 7.90969 13.7798)
(1.39562e-25 8.05937 13.8752)
(-2.49146e-24 8.99947 15.5081)
(-2.67925e-24 8.7178 15.0597)
(-2.55394e-24 8.71455 15.0366)
(-2.73362e-24 8.70877 15.0447)
(1.41962e-23 8.71173 15.0461)
(1.37197e-23 8.70916 15.0501)
(1.30033e-23 8.70929 15.053)
(1.43188e-23 8.7083 15.0564)
(1.31113e-23 8.70781 15.0598)
(1.27774e-23 8.70712 15.0635)
(1.31708e-23 8.70686 15.0672)
(1.28131e-23 8.70588 15.0715)
(1.39799e-23 8.70673 15.0749)
(1.29663e-23 8.70427 15.0809)
(1.26883e-23 8.70799 15.0831)
(1.31883e-23 8.70176 15.0904)
(1.35259e-23 8.71697 15.1052)
(1.41499e-23 8.93308 15.5027)
(1.27113e-23 8.08318 14.0752)
(-3.44357e-26 8.23966 14.1804)
(5.84039e-25 8.92059 15.3748)
(6.3074e-25 8.70165 15.0324)
(6.10292e-25 8.70362 15.0189)
(6.57664e-25 8.6985 15.0253)
(-3.36565e-24 8.70034 15.0269)
(-3.23613e-24 8.69873 15.0302)
(-3.03952e-24 8.69839 15.033)
(-3.32733e-24 8.6977 15.0361)
(-3.06141e-24 8.69712 15.0394)
(-2.96475e-24 8.69657 15.0428)
(-3.11594e-24 8.69617 15.0463)
(-3.03431e-24 8.69556 15.0503)
(-3.26416e-24 8.69586 15.054)
(-3.09328e-24 8.69426 15.0594)
(-2.99533e-24 8.69725 15.0619)
(-3.10974e-24 8.69129 15.0701)
(-3.16369e-24 8.70425 15.0762)
(-3.33987e-24 8.85558 15.3705)
(-2.89276e-24 8.25515 14.3662)
(8.58691e-27 8.42319 14.4926)
(-1.38962e-25 8.83808 15.2311)
(-1.49945e-25 8.69069 15.012)
(-1.46189e-25 8.69522 15.0051)
(-1.59717e-25 8.69182 15.0089)
(8.05353e-25 8.69212 15.0105)
(7.77304e-25 8.69115 15.0126)
(7.20135e-25 8.69035 15.0148)
(7.72117e-25 8.68951 15.0171)
(7.28314e-25 8.68862 15.0197)
(6.964e-25 8.68775 15.0224)
(7.47504e-25 8.68689 15.0254)
(7.26587e-25 8.68605 15.0287)
(7.68856e-25 8.68543 15.0321)
(7.46878e-25 8.68433 15.0364)
(7.16135e-25 8.68532 15.0397)
(7.38349e-25 8.68103 15.0469)
(7.44351e-25 8.69107 15.0483)
(7.93204e-25 8.77265 15.2324)
(6.62061e-25 8.42326 14.6449)
(-1.8081e-27 8.61058 14.8239)
(2.77993e-26 8.7527 15.0801)
(3.00101e-26 8.69281 15.0032)
(2.91394e-26 8.695 15.0014)
(3.26757e-26 8.69442 15.0021)
(-1.60918e-25 8.69407 15.0026)
(-1.57432e-25 8.69366 15.0031)
(-1.44421e-25 8.69305 15.0038)
(-1.50048e-25 8.69232 15.0046)
(-1.46901e-25 8.69143 15.0056)
(-1.38185e-25 8.69038 15.0067)
(-1.5056e-25 8.68914 15.008)
(-1.46349e-25 8.68772 15.0095)
(-1.52341e-25 8.68604 15.0113)
(-1.51086e-25 8.68417 15.0133)
(-1.44375e-25 8.68208 15.0156)
(-1.47077e-25 8.67892 15.0189)
(-1.47016e-25 8.67938 15.02)
(-1.59322e-25 8.69418 15.0844)
(-1.27779e-25 8.5934 14.8933)
(6.17516e-15 0.159014 -2.35108)
(6.47696e-15 -0.0164869 -3.92517)
(3.99098e-15 -0.11377 -3.75119)
(3.58163e-15 0.0575698 -3.84761)
(2.7701e-15 0.385907 -3.95641)
(1.9671e-15 0.122206 0.819282)
(2.20556e-15 -0.674517 3.37483)
(2.24814e-15 -0.774926 2.80636)
(2.13865e-15 -0.863535 2.78226)
(2.1988e-15 -1.66783 4.79236)
(8.9137e-16 -2.26475 4.77101)
(3.84177e-16 -2.34692 5.15058)
(-6.46893e-16 -3.67547 8.71416)
(-1.20593e-15 -3.98199 7.78319)
(-1.75534e-15 -4.6686 8.52895)
(-2.21197e-15 -4.811 9.02838)
(-3.71739e-15 -6.90614 13.4495)
(-3.20455e-15 -6.85089 10.4575)
(-3.51167e-15 -7.39217 11.011)
(-3.79332e-15 -9.89205 14.8052)
(-1.83459e-15 -8.7233 11.63)
(-1.33867e-15 -9.12966 12.1701)
(-1.11977e-16 -9.13618 12.1354)
(7.85223e-16 -9.30539 12.1894)
(1.41054e-15 -9.36996 12.1212)
(1.69642e-15 -9.43398 12.0854)
(1.80175e-15 -9.42299 12.1217)
(1.81984e-15 -9.56936 12.2099)
(2.66232e-15 -8.77947 11.0912)
(1.82095e-15 -8.70374 12.0668)
(1.60683e-15 -8.65913 12.4123)
(1.42742e-15 -8.53865 12.6971)
(1.27741e-15 -8.40944 12.9768)
(1.1439e-15 -8.25986 13.2528)
(1.04668e-15 -8.08435 13.4893)
(1.04984e-15 -7.82494 13.5589)
(1.01653e-15 -7.48702 13.1)
(1.01483e-15 -7.25431 11.3805)
(2.2047e-15 -2.56014 -1.93613)
(1.29704e-15 -5.33249 2.55256)
(1.63034e-15 -3.81436 -0.385304)
(2.24746e-15 -6.70564 1.5146)
(1.97338e-15 -5.78338 0.0160882)
(1.54238e-15 -5.20604 -0.217552)
(2.13626e-15 -6.82846 -0.513838)
(1.43227e-15 -4.73344 -0.848605)
(2.12811e-15 -5.95073 -1.39664)
(1.58926e-15 -5.05879 -2.04682)
(1.19282e-15 -4.03263 -1.8753)
(1.58228e-15 -4.97811 -2.77125)
(9.03937e-16 -2.87333 -2.21169)
(1.2314e-15 -3.49576 -3.36717)
(6.92226e-16 -2.08487 -2.86508)
(3.99503e-16 -1.04793 -1.94495)
(4.49855e-16 -1.25547 -2.75244)
(-6.58364e-17 -0.16308 -0.968308)
(-6.63876e-17 0.534136 -0.667829)
(-4.24444e-16 0.591217 1.84545)
(3.72822e-16 0.375185 1.65989)
(-2.78693e-15 0.641288 3.6658)
(1.9699e-16 0.150468 -1.62217)
(4.56863e-16 -0.125656 -0.389624)
(1.73864e-15 -0.116026 0.389643)
(1.02433e-15 -0.232021 0.0569709)
(3.50087e-16 0.438636 2.53648)
(4.12623e-16 0.492547 0.540795)
(3.09218e-16 0.151602 -2.08234)
(3.11761e-16 -0.211043 0.0304664)
(3.29985e-16 -0.266724 2.04419)
(3.16829e-16 -0.253992 4.02281)
(2.87494e-16 -0.221141 6.04396)
(2.44165e-16 -0.0661746 7.59776)
(1.96543e-16 0.223619 6.72567)
(2.10047e-16 0.563053 2.97919)
(3.37285e-16 0.72634 -3.0896)
(5.84559e-16 0.697053 -9.86808)
(7.48227e-16 -0.0509749 -15.5056)
(6.47165e-16 -0.970155 -11.3326)
(-1.15427e-15 -0.481519 1.26083)
(6.0486e-16 0.261946 -1.24319)
(9.37519e-16 -0.469122 0.650251)
(1.61133e-15 0.486943 2.27236)
(1.92545e-15 -0.680513 -1.94039)
(7.66583e-16 -0.0363193 3.6719)
(5.00314e-16 0.198045 5.26362)
(4.40514e-16 -0.128076 4.73453)
(3.18354e-16 -0.435167 4.94044)
(2.12937e-16 -0.5241 5.71855)
(1.0488e-16 -0.502553 6.66663)
(-1.12586e-17 -0.437795 7.68796)
(-1.38748e-16 -0.108283 8.4154)
(-1.8081e-16 0.629055 7.5127)
(-3.37853e-17 1.50841 4.03559)
(3.63887e-16 2.08083 -1.67386)
(1.02073e-15 1.91187 -9.01314)