/*--------------------------------*- C++ -*----------------------------------*\
| =========                 |                                                 |
| \\      /  F ield         | OpenFOAM: The Open Source CFD Toolbox           |
|  \\    /   O peration     | Version:  4.1                                   |
|   \\  /    A nd           | Web:      www.OpenFOAM.org                      |
|    \\/     M anipulation  |                                                 |
\*---------------------------------------------------------------------------*/
FoamFile
{
    version     2.0;
    format      ascii;
    class       volScalarField;
    location    "25";
    object      p;
}
// * * * * * * * * * * * * * * * * * * * * * * * * * * * * * * * * * * * * * //

dimensions      [0 2 -2 0 0 0 0];

internalField   nonuniform List<scalar> 
1280
(
-134.749
-44.7853
-100.803
-241.843
-80.8463
-193.311
-324.846
-340.557
-257.006
-323.322
-562.922
-390.81
-500.04
-848.744
-612.883
-827.548
-1252.3
-1423.08
-917.601
-3378.84
-956.544
988.649
1549.64
2042.13
2182.5
3023.29
-830.328
246.637
365.358
491.255
513.848
526.273
581.693
703.192
953.626
1311.77
1900.46
2391.11
3084.32
2852.32
-2675.79
581.563
1204.7
1289.09
3575.99
2935.07
2871.16
2864.81
2925.55
3161.09
3128.38
2937.23
3279.59
3317.02
3263.69
3650.5
2519.89
2351.33
1982.61
381.898
2859.18
2872.71
2294.6
1962.58
1728.86
1660.11
1677.14
1746.76
1839.81
1921.8
1968.83
2068.46
2026.38
-622.33
5040.11
4001.75
3683.84
2880.81
1993.39
150.782
-1999.35
-34.5016
-311.177
13.2192
146.183
387.946
445.368
482.781
510.463
518.725
498.208
479.682
445.286
368.89
358.43
341.05
212.991
56.1703
-5.57514
123.134
50.9739
388.217
19.0957
9.53813
-258.044
-221.611
-349.357
-137.699
-93.2551
-41.9043
-18.6589
39.3298
113.289
155.236
168.323
126.361
61.9502
21.2328
56.8438
132.761
920.748
274.007
155.846
-593.516
-410.748
-571.389
-189.792
-79.7426
59.5005
132.77
275.867
444.873
513.341
487.865
348.434
164.931
71.1769
127.692
183.119
1102.28
465.375
189.216
-649.307
-438.839
-614.417
-210.136
-70.5588
113.509
179.011
351.402
599.317
692.799
680.852
498.799
238.425
73.9362
178.596
238.989
1211.43
687.3
275.79
-598.358
-509.151
-710.442
-264.171
-73.9317
137.88
223.819
453.45
756.899
890.702
896.18
667.269
311.068
75.4603
245.307
286.589
1211.14
814.134
318.249
-491.143
-627.984
-686.619
-299.335
-62.9049
227.523
254.674
497.056
906.56
1078.89
1101.28
824.414
341.849
-39.2812
174.847
315.89
1151.45
896.804
331.014
-377.796
-705.793
-572.764
-345.21
-50.9111
194.515
222.067
644.041
1012.38
1221.95
1290.26
973.33
348.096
-107.89
229.926
312.988
1048.22
858.239
251.029
-331.456
-649.131
-498.126
-294.802
-62.0645
123.631
276.501
804.397
1086.21
1338.13
1462.25
1208.78
272.286
-403.465
-92.1984
274.561
892.684
716.104
54.6956
-429.488
-556.453
-354.996
-125.415
-58.5492
184.281
347.334
814.142
1096.82
1377.86
1569.27
1523.11
738.615
22.9586
486.643
213.285
682.552
465.876
-285.735
-660.53
-526.519
-111.683
31.0337
70.2904
224.556
378.788
796.991
1040.08
1307.03
1458.84
1471.35
1044.35
1380.22
5374.19
147.383
463.59
145.866
-722.903
-929.95
-459.746
185.947
280.407
266.058
236.268
382.521
772.829
960.546
1108.27
1090.49
1040.32
784.776
955.466
4000.62
86.1292
260.655
-170.87
-1073.18
-1105.12
-272.392
462.954
580.748
480.384
323.565
387.335
676.107
791.03
846.072
730.924
637.263
683.129
1152.63
4538.45
33.2961
90.518
-406.922
-1171.02
-1157.18
-74.5894
619.166
742.577
602.95
415.263
431.346
580.75
617.175
613.733
376.72
208.563
198.903
471.522
4489.86
-7.88995
-38.4531
-560.568
-1129.84
-1158.92
78.9468
690.289
782.997
625.051
470.04
457.29
518.974
433.674
313.535
-51.0397
-452.915
-436.228
-202.524
948.939
-42.34
-135.245
-655.228
-1031.43
-1096.57
193.453
713.181
750.764
603.563
472.873
433.766
471.926
324.04
44.6386
-408.166
-762.109
-520.374
-519.42
296.588
-62.5723
-187.545
-678.062
-868.166
-977.168
270.214
718.836
678.525
557.939
447.672
406.821
386.114
184.675
-177.286
-579.895
-767.416
-554.693
-431.433
212.062
-84.0986
-230.73
-673.324
-669.054
-821.909
308.798
703.884
595.928
491.83
386.846
357.815
287.822
96.1691
-255.309
-558.215
-748.458
-494.273
-413.913
65.0414
-70.6619
-194.558
-580.718
-467.356
-634.972
314.318
662.719
510.275
416.774
311.423
276.353
206.619
61.5332
-226.812
-399.523
-599.512
-346.736
-304.248
42.087
-97.0609
-235.173
-555.732
-381.764
-456.856
287.019
583.24
379.223
315.773
225.523
197.016
135.62
22.0351
-186.346
-239.413
-424.112
-254.28
-241.583
-16.9825
-2.26644
-16.7264
-281.399
-417.023
-330.533
254.065
481.427
234.088
211.287
134.151
112.087
75.6868
10.8758
-123.306
-148.756
-290.354
-187.73
-169.701
-22.5506
-101.056
-264.764
-356.995
-462.857
-263.277
162.819
235.167
60.323
63.2063
45.8731
40.6604
17.6752
-10.1748
-59.8574
-70.8024
-156.175
-76.6635
-67.6341
24.8469
11592.8
11483
11320.3
11088.8
10814.5
10526.3
10222.9
9889.3
9545.79
9250.45
8996.88
8789.37
8609.23
8436.1
8262.94
8100.04
7984.69
7858.5
7849.26
7664.14
8079.32
8199.94
8213.96
8286.55
8297.29
8326.36
8325.08
8322.07
8312.71
8308.09
8315.23
8330.37
8340.03
8322.82
8274.21
8201.84
8169.82
8140.67
8187.76
8127.48
8324.8
8468.93
8509.13
8626.68
8673.86
8744.14
8783.55
8819.55
8837.71
8843.65
8838.73
8832.72
8843.03
8878.26
8945.41
9030.3
9129.55
9220.31
9294.13
9337.14
5777.13
5990.71
6053.48
6207.08
6304.4
6422.35
6528.8
6634.65
6738.7
6840.02
6939.92
7038.32
7136.24
7237.6
7343.96
7464.84
7586.91
7729
7829.56
7968.33
4570.18
4794.1
4868.39
5020.36
5136.57
5262.63
5388.04
5508.44
5628.65
5744.15
5856.34
5965.3
6069.93
6173.52
6271.98
6375.06
6468.31
6581.58
6657.3
6778.8
1922.71
2152.63
2256.11
2396.64
2544.82
2687.32
2854.24
3015.58
3193.88
3376.35
3569.37
3770.86
3978.21
4192.77
4403.81
4618.67
4812.19
5021.04
5169.12
5427.95
-348.795
-422.389
-414.31
-503.916
-543.541
-639.544
-707.015
-809.717
-885.271
-954.732
-984.764
-974.205
-910.203
-781.863
-592.01
-332.206
-51.0644
266.692
489.384
872.089
1088.54
664.928
594.974
329.803
134.221
-146.765
-412.038
-724.428
-1017.42
-1323.92
-1616.35
-1905.8
-2177.22
-2420.41
-2613.32
-2742.34
-2789.77
-2743.51
-2730.31
-2515.52
5545.25
5066.5
4923.18
4599.91
4370.19
4048.2
3768.25
3447.35
3173.3
2907.31
2697.45
2525.57
2413.24
2351.7
2344.37
2363.17
2372.15
2392.62
2322.45
2005.39
9677.81
9587.28
9587.24
9524.04
9547.28
9479.07
9475.84
9383.61
9306.78
9154.04
8965.11
8693.36
8341.65
7904.17
7442.83
7041.99
6758.43
6629.62
6639.91
6339.63
7859.32
7980.34
8045.08
8096.73
8226.86
8268.23
8402.92
8466.17
8572.15
8639.79
8716.36
8778.7
8833.65
8856.81
8824.83
8718.08
8594.52
8486.41
8483.07
8434.87
7189.33
7317.47
7419.39
7436.63
7595.39
7604.42
7737.31
7774.06
7862.2
7906.59
7954.18
7982.61
8009.36
8047.23
8111.88
8202.87
8302.38
8404.56
8476.15
8555.16
5282.17
5412.12
5579.73
5579.41
5802.7
5811.42
5993.68
6057.75
6192.93
6291.82
6405.36
6512.7
6618.38
6723.42
6825.16
6933.46
7036.33
7157.89
7243.44
7366.71
3513.25
3576.28
3788.94
3739.15
4001.57
3977.45
4190.22
4244.65
4406.07
4518.11
4662.29
4803.02
4952.13
5109.29
5268.17
5438.57
5597.86
5778.66
5900.97
6112.84
1491.77
1385.67
1574.31
1399.41
1599.72
1449.07
1577.03
1502.35
1557.43
1537.9
1558.01
1563.98
1582.45
1618.99
1681.95
1804.53
1953.9
2176.21
2344.74
2617.36
1892.78
1566.66
1645.39
1307.89
1371.96
1091.48
1068.85
867.257
774.899
614.617
487.514
341.541
208.217
90.2576
2.17556
-50.7013
-95.3408
-81.7654
-81.1403
64.7507
5597.96
5161.82
5237.38
4671.97
4654.14
4217.73
4053.46
3734.94
3515.26
3259.79
3043.02
2831.33
2649.26
2496.41
2382.36
2288.45
2199.54
2079.33
1894.22
1785.23
7312.84
6873.37
7452.63
6879.31
7091.47
6770.52
6708.52
6485.38
6323.56
6121.47
5933.16
5742.19
5567.54
5419.61
5312.89
5235.83
5174.29
5138.63
5099.35
5015.85
5668.91
4047.76
4825.41
3909.49
3872.05
3376.61
3105.14
2755.74
2480.99
2225.88
2025.94
1877.87
1797.71
1794.64
1884.33
2072.12
2324.83
2661.17
3094.12
3353.59
58034.8
51558.7
48119.9
43814.5
40224.7
36678.2
33416.8
30319.3
27408.2
24651.4
22038.1
19551.9
17178.4
14902.6
12729.1
10633
8536.84
6723.24
4966.02
2066.02
64772.3
58294.5
54854.7
50548.1
46957.3
43409.8
40147.5
37049
34137
31379
28764.5
26276.8
23901.6
21623.4
19447.1
17347.5
15247.6
13430.3
11669.7
8771.95
12370.4
10750.8
11528.3
10612.8
10574.9
10079.3
9807.03
9456.9
9181.08
8924.77
8723.36
8573.65
8491.64
8486.3
8572.66
8756.05
9003.57
9334.94
9770.64
10033.5
14066.7
13632.6
14215.1
13645.8
13862.1
13545.3
13487.9
13269.5
13113
12916.4
12734.3
12550
12382.9
12242.8
12142.6
12071.2
12015.3
11982
11949.2
11877.9
12467.5
12036
12113.6
11552.7
11540.8
11110.8
10954
10643.5
10432.2
10185.9
9978.52
9776.78
9604.21
9459.15
9347.99
9251.56
9157.93
9030.68
8826.88
8678.53
8703.96
8364.76
8434.75
8085.81
8137.58
7844.9
7808.08
7591.32
7481.41
7301.28
7152.06
6981.17
6821.02
6674.91
6558.7
6477.32
6411.35
6404.74
6385.85
6528.07
8025.89
7910.17
8089.79
7908.69
8094.3
7930.43
8042.4
7950.51
7989.46
7952.41
7957.37
7948.77
7955.96
7985.57
8048.46
8177.84
8336.77
8564.13
8728.22
9008.08
10214.3
10320.7
10521.1
10400.3
10649.1
10577.2
10770.5
10798.5
10945.7
11046.5
11181.1
11316
11462.4
11618.7
11777.7
11948.7
12108.3
12289.1
12413.4
12627.3
12317.6
12449.7
12640.6
12514.4
12650.6
12605.2
12689.8
12711.1
12795.8
12869.8
12965
13057.3
13153.9
13249.5
13340.9
13437.7
13527.3
13631
13701.6
13800.8
13839
13980.7
14015.3
13992
13997.8
13989.6
14005.4
14023.8
14063.6
14113
14172.8
14223
14251.8
14276.2
14320.7
14384.7
14449.1
14517.5
14562.8
14617.4
14152.5
14207.5
14183.3
14192.6
14196.3
14218
14246.8
14288.9
14340.6
14395.3
14445.1
14501.3
14554.7
14601.1
14623.8
14602.2
14566.2
14547.3
14570
14571.2
15033.6
14968.7
14942.9
14960.3
15005
15066.9
15130.6
15196.2
15217.9
15188.3
15134
15031.5
14884.6
14690.7
14474.9
14292
14176.2
14136.6
14165.7
14017.8
13347.7
13079.7
13015.8
12922
12843.2
12731.5
12577.5
12362.6
12096.9
11842.4
11615.8
11430.2
11334.9
11299.2
11321.2
11383.8
11468
11544.2
11522.8
11355.8
10155.1
9965.35
9946.23
9854.07
9761.08
9632.89
9477.82
9338.9
9240.58
9172.16
9118.54
9079.1
9027.28
8953.32
8861.46
8768.73
8702.34
8684.09
8670.35
8866.39
10549.6
10644
10703.4
10731.5
10741.8
10740.5
10732.6
10734.8
10762.2
10780.4
10761.4
10739.7
10715.9
10712.8
10736.7
10825.4
10972.1
11234.5
11460.2
11796.6
12672.4
12898.2
12987.2
13110.2
13215.3
13332.5
13464.5
13611.5
13766.8
13924.7
14085
14254.9
14429.9
14616.4
14806.4
15011.7
15204.6
15415.6
15551.3
15761.3
14972.4
15143.1
15195.5
15290.9
15363.9
15449
15540.5
15639.9
15739.7
15838.2
15936
16032.5
16123.7
16210.9
16291.7
16377.2
16456.8
16552
16608.8
16686.9
15733.1
15923.2
15995.8
16137.9
16253.3
16378.5
16498.6
16610.6
16694.7
16744.2
16753.2
16718.2
16647.5
16565.8
16522.1
16544.8
16622.9
16709.7
16770.4
16784.2
18396.7
18407.4
18349.5
18321.4
18244.4
18162.4
18057
17931.7
17774.2
17594.8
17406.1
17224.6
17065
16940.2
16858
16791.1
16719.6
16575.3
16516.1
16305
15622.2
15492.7
15428.9
15283.1
15157
15000.1
14839.6
14655.9
14459.1
14243.4
14007.5
13736.8
13418.2
13051.8
12669.8
12326.7
12064.1
11881.3
11841.7
11538.1
17449
17181.7
16982.9
16562.3
16128.1
15643.7
15122
14539.1
13919.8
13338.7
12789.1
12280.7
11823
11435.6
11133.8
10900.9
10679.7
10455.9
10270.3
9981.64
)
;

boundaryField
{
    outletWall
    {
        type            fixedValue;
        value           uniform 0;
    }
    fineWalls
    {
        type            zeroGradient;
    }
    fineFrontAndBack
    {
        type            zeroGradient;
    }
    fineplugLeft
    {
        type            cyclicAMI;
        value           nonuniform List<scalar> 
20
(
6701.78
6896.27
6765.02
6767.85
6742.39
6801.07
6889.52
7003.72
7136.75
7300.27
7498.61
7709.7
7960.77
8966.05
9025.68
9088.1
9279.45
9366.19
9384.1
9082.92
)
;
    }
    fineplugRight
    {
        type            cyclicAMI;
        value           nonuniform List<scalar> 
20
(
8557.14
8790.81
8823.62
8936.24
9066.52
9239.06
9483.92
9807.74
10192.5
10615.6
11064.8
11549.5
12036.6
13331.8
13523
13702.8
13986.6
14162.5
14144
13989.3
)
;
    }
    inletOutletLeft
    {
        type            cyclicAMI;
        value           nonuniform List<scalar> 
20
(
6701.78
6896.27
6765.02
6767.85
6742.39
6801.07
6889.52
7003.72
7136.75
7300.27
7498.61
7709.7
7960.77
8966.05
9025.68
9088.1
9279.45
9366.19
9384.1
9082.92
)
;
    }
    inletLeft
    {
        type            zeroGradient;
    }
    inletWallsLeft
    {
        type            zeroGradient;
    }
    inletFacesLeft
    {
        type            zeroGradient;
    }
    inletOutletRight
    {
        type            cyclicAMI;
        value           nonuniform List<scalar> 
20
(
8557.14
8790.81
8823.62
8936.24
9066.52
9239.06
9483.92
9807.74
10192.5
10615.6
11064.8
11549.5
12036.6
13331.8
13523
13702.8
13986.6
14162.5
14144
13989.3
)
;
    }
    inletRight
    {
        type            zeroGradient;
    }
    inletWallsRight
    {
        type            zeroGradient;
    }
    inletFacesRight
    {
        type            zeroGradient;
    }
}


// ************************************************************************* //
