/*--------------------------------*- C++ -*----------------------------------*\
| =========                 |                                                 |
| \\      /  F ield         | OpenFOAM: The Open Source CFD Toolbox           |
|  \\    /   O peration     | Version:  4.1                                   |
|   \\  /    A nd           | Web:      www.OpenFOAM.org                      |
|    \\/     M anipulation  |                                                 |
\*---------------------------------------------------------------------------*/
FoamFile
{
    version     2.0;
    format      ascii;
    class       surfaceScalarField;
    location    "25";
    object      phi;
}
// * * * * * * * * * * * * * * * * * * * * * * * * * * * * * * * * * * * * * //

dimensions      [0 3 -1 0 0 0 0];

internalField   nonuniform List<scalar> 
2360
(
50119.9
56212.8
-6092.89
56212.8
56212.8
63502.2
-7289.33
63502.2
63502.2
63502.2
73324.2
-9822.08
73324.2
73324.2
86204
-12879.8
86204
86204
104335
-18131.4
104335
104335
133017
-28682.1
133017
133017
144461
158653
172649
185898
198275
209781
183082
37390
192956
201784
209449
215934
221408
226201
230768
235793
242027
249931
259454
269468
277628
185555
92073.2
185555
185555
185555
78530.8
107024
78530.8
78530.8
78530.8
23999.2
54531.6
23999.2
23999.2
-9962.51
33961.7
-9962.47
-9962.5
-9962.46
-118433
108470
-118433
-118433
-118433
-261163
142730
-256323
-250571
-245570
-241501
-237695
-233451
-228342
-222181
-214954
-206698
-197436
-187191
-176009
-188066
24176
-175370
-161584
-146670
-131110
-115796
-103339
-103339
-103339
-54952.6
-48386.6
-54952.6
-54952.6
-17954.2
-36998.4
-17954.2
-17954.2
13566.3
-31520.5
13566.3
13566.3
41433.2
-27867
41433.2
41433.2
41433.2
67585.5
-26152.3
67585.5
67585.5
94740.7
-27155.2
-32972.2
101336
-22285.4
61330.2
-10570.7
-70267.7
-9206.29
-109001
-11348.4
-78833.3
-7381.44
34097.8
-5522.64
89317.2
-4145.2
107247
-1691.3
113539
1989.79
113041
5722.41
119940
9617.11
129779
14866.2
105895
20771.6
82384.6
26105.7
52826.6
30219.7
28193.3
32204.3
14251.9
32553.6
4088.18
-18559.9
-35188.7
100124
-21433.7
47575.2
-16763.4
-74938
-23884.6
-101880
-27112.4
-75605.5
-13932.8
20918.2
-7884.11
83268.5
-5780.9
105144
-2961.4
110719
1108.5
108971
4665.72
116383
8359.64
126085
13846.4
100408
20375.2
75855.9
26958.8
46242.9
32397.1
22755.1
35305.3
11343.7
32838.9
6554.64
-11873.3
-38059.6
98390.8
-27138.3
36653.9
-29714
-72362.4
-40320.4
-91273.4
-42486.6
-73439.3
-24824.8
3256.31
-13205.4
71649.1
-8831.74
100770
-5422.03
107310
-770.757
104320
2707.98
112904
6165.48
122627
11969.8
94604
19368.5
68457.2
27618.3
37993.1
35055.2
15318.2
38900.5
7498.38
35392.8
10062.4
-4347.44
-42234.2
97166.9
-37113.7
31533.4
-46344.2
-63131.8
-59166.3
-78451.3
-60449.8
-72155.9
-39505.2
-17688.2
-21572.7
53716.6
-13531.4
92729
-8641.42
102420
-2257.1
97935.2
941.138
109706
3070.24
120498
9202.96
88471.2
17452.3
60207.8
27526.9
27918.5
37526.5
5318.56
42234.6
2790.3
38381
13916
2513.07
-47258.6
97448.4
-49807.6
34082.4
-65286.9
-47652.5
-80402.9
-63335.4
-82498.8
-70059.9
-59473
-40714
-33375.4
27619
-20274.9
79628.4
-12817.1
94962
-8469.99
93588.1
-5710.52
106947
-1319.28
116107
4965.19
82186.8
14167.3
51005.7
25538
16547.8
38668.6
-7811.95
46043.7
-4584.86
42978
16981.7
8492.68
-52666.2
100105
-63518.8
44935
-84490.8
-26680.5
-102397
-45429.5
-108195
-64261.7
-88006.7
-60902.2
-52483
-7904.67
-30173.8
57319.2
-20692.5
85480.7
-18248.6
91144.1
-15328.7
104027
-8155.73
108934
-1199.75
75230.8
7964.74
41841.2
17413.6
7098.96
30060.3
-20458.7
40079.1
-14603.6
43984
13076.8
4090.08
-57139.3
105102
-75133.6
62929.3
-101412
-401.967
-122615
-24226.8
-133518
-53358.3
-121846
-72574.2
-82357.4
-47393.6
-47193.6
22155.4
-33974.4
72261.5
-30070
87239.8
-24149.9
98106.6
-15191.3
99975.3
-8594.13
68633.6
-2920.33
36167.4
-3081.51
7260.14
-9274.95
-14265.2
-1258.8
-22619.7
17315.9
-5497.83
45582
-59397.2
111469
-81340.4
84872.5
-112024
30281.5
-136104
-146.939
-149543
-39919
-146925
-75192.4
-117255
-77063.3
-74803.2
-20296.4
-50987.1
48445.4
-42875.1
79127.8
-33544.9
88776.4
-22798.2
89228.7
-17518.8
63354.2
-20551.2
39199.8
-38735.8
25444.7
-71191.6
18190.6
-107349
13537.6
-132943
20095.8
55369.4
-59058.2
117950
-80936.5
106751
-112753
62097.7
-136750
23850.7
-146005
-30664.9
-145819
-75378
-133435
-89447
-102015
-51716.5
-69947.3
16377.5
-53382
62562.5
-41683.9
77078.4
-30941.1
78485.8
-32193.8
64606.9
-49958.5
56964.5
-80049.5
55535.7
-112132
50273.3
-136024
37429
-139730
23802.5
24109.5
-56840.1
123824
-76218.2
126129
-104665
90544.8
-121567
40752.5
-118271
-33961
-112855
-80793.6
-117268
-85034.8
-115999
-52985.5
-95706
-3915.05
-73652.8
40509.3
-60437.3
63862.8
-55614.5
73663
-65635.4
74627.9
-86777.5
78106.6
-108004
76762
-120368
62637.6
-117610
34670.9
-92519
-1288.46
-34447.8
-53560.5
128911
-69405.3
141974
-91643.5
112783
-97301.9
46410.9
-81395
-49867.8
-71080.1
-91108.5
-86410.7
-69704.1
-111409
-27987.1
-116590
1265.55
-105454
29373.2
-95312.9
53722.1
-93331.9
71682.1
-100352
81647.6
-111175
88930.3
-119834
85420.8
-122154
64957.9
-116527
29043.9
-99448.2
-18367.7
-79364.4
-49867.8
133369
-62268.8
154375
-78613.3
129127
-77928.7
45726.3
-59942.8
-67853.7
-50808.6
-100243
-69447.4
-51065.3
-99993.1
2558.65
-116475
17747.5
-118756
31654
-116035
51000.8
-114429
70076.2
-117170
84388.9
-122546
94306.2
-128461
91335.5
-133797
70293.9
-135773
31020.2
-130396
-23745
-102736
-46281.9
137384
-55749.4
163842
-67375
140753
-64663.2
43014.4
-50332.2
-82184.7
-45596.1
-104979
-62161.1
-34500.3
-84833.7
25231.2
-99710.2
32624
-107780
39723.4
-111321
54542.4
-112675
71429.9
-115181
86895.1
-118368
97493.5
-117799
90765.8
-105064
57559.7
-77527.8
3483.66
-63791.6
-37481.2
-74454.8
-43383.9
140965
-50391.2
170849
-57987.9
148350
-53429.2
38455.8
-42189
-93424.9
-41047.6
-106120
-52750.7
-22797.3
-66185.7
38666.3
-77464.9
43903.3
-85999.8
48258.3
-91645
60187.6
-95844.5
75629.4
-99157.5
90208.1
-98142.4
96478.3
-84410.3
77033.7
-50644.9
23794.3
-14736.8
-32424.4
10674.5
-62892.4
-26390.2
-42155.1
143737
-46686.8
175381
-50301.7
151965
-42709.3
30863.4
-33765.1
-102369
-35606.3
-104279
-42970.5
-15433.1
-49693.7
45389.4
-57761.5
51971.1
-65362
55858.7
-70891.2
65716.8
-74985.8
79724
-75919.2
91141.4
-69132.5
89691.6
-48606.3
56507.5
-19578.8
-5233.29
-1804.73
-50198.4
10834.9
-75532.1
-44237.4
-43055.6
145199
-44888.4
177214
-44355.5
151432
-32478.1
18986
-25993.1
-108854
-30051.4
-100221
-32981.5
-12503
-36056.4
48464.3
-42285.3
58200.1
-48784.9
62358.3
-53496.3
70428.2
-55629.7
81857.4
-52824.1
88335.8
-42573.9
79441.3
-23189.1
37122.7
-3315.12
-25107.2
6027.01
-59540.6
9205.16
-78710.2
-53163.7
-46489.3
144697
-45079.5
175804
-39691.2
146044
-23157.1
2451.94
-19427.6
-112584
-24681
-94967.2
-23380.7
-13803.4
-24933.2
50016.9
-30163.8
63430.6
-35627.7
67822.3
-38917.3
73717.8
-38784.3
81724.4
-33647
83198.6
-22781.9
68576.3
-6098.8
20439.6
7035.86
-38241.9
10996.3
-63501
9275.79
-76989.7
-56767.6
-53099.6
141894
-48222.8
170927
-37048.8
134870
-17029.1
-17567.7
-14800.6
-114812
-19334.8
-90433
-15282.6
-17855.6
-16192.9
50927.2
-20552.4
67790
-25136.8
72406.7
-27210.8
75791.8
-25625.5
80139
-19627.4
77200.5
-9347.44
58296.3
5629.01
5463.14
13187.6
-45800.5
12459.5
-62772.9
9177.47
-73707.7
-57412.3
-68058.2
135041
-55582.1
158451
-33138.2
112426
-13256.1
-37449.8
-12430.1
-115638
-14772.5
-88090.6
-9915.45
-22712.6
-9393.73
50405.5
-12670.8
71067.1
-17093.5
76829.4
-18904.3
77602.6
-16890.2
78125
-10924.9
71235.1
-666.663
48038.1
11607
-6810.49
14271.9
-48465.4
12341.9
-60842.9
9573.79
-70939.6
-55127.8
-80939.2
-61396.1
-33793.2
-13379.1
-10695.9
-12052.8
-8726.78
-4895.84
-4702.36
-7095.38
-8560.31
-7021.6
-2745.99
4638.78
12218.7
14129.4
12455.8
10475.9
579.352
-12022.9
1752.54
-15365.7
2843.96
-15086.9
3711.98
-14117
4220.42
-12886.2
4423.19
-11708.9
4247.57
-10514.9
3804.54
-9430.91
3244.41
-8268.03
2635.82
-7057.06
2007.22
-5856.11
1333.98
-4800.89
603.78
-4063.38
-69.4532
-3893.74
-559.042
-4535.58
-782.501
-6010.15
-738.448
-7948.88
-473.252
-9788.07
-165.144
-10321.9
-8325.01
-1065.97
-10957
-1385.21
-15046.4
-1419.19
-15053
-1360.3
-14175.9
-1345.85
-12900.7
-1390.21
-11664.6
-1348.99
-10556.2
-1198.95
-9581.02
-776.015
-8691.04
0.684322
-7833.85
1142.33
-6997.86
2537.8
-6196.47
3967.29
-5492.95
5154.34
-5080.86
5795.8
-5177.09
5676.93
-5891.33
4769.8
-7041.77
3220.58
-8238.87
1478.85
-8580.16
-6846.16
-340.15
-10616.9
382.427
-15769.1
1222.83
-15893.4
1979.99
-14933.1
2713.91
-13634.7
3414.03
-12364.7
4115.73
-11258
4881.64
-10347
5752.87
-9562.32
6758.84
-8839.88
7895.24
-8134.31
9120.89
-7422.16
10328.5
-6700.58
11265.2
-6017.59
11568.3
-5480.19
10905.3
-5228.43
9177.46
-5313.9
6496.25
-5557.68
3354.41
-5438.33
-3491.75
450.356
-11067.3
1370.08
-16688.8
2096.67
-16620
2618.99
-15455.5
3103.78
-14119.5
3612.55
-12873.5
4163.59
-11809
4710.33
-10893.8
5223.77
-10075.8
5690.15
-9306.27
6120.46
-8564.62
6538.59
-7840.31
6965.89
-7127.88
7366.53
-6418.25
7607.38
-5721.05
7435.51
-5056.57
6600.26
-4478.64
4944.42
-3901.83
2594.68
-3088.59
-897.071
1077.86
-12145.2
2121.8
-17732.8
2737.47
-17235.7
3150.98
-15869
3580.8
-14549.4
4078.83
-13371.6
4651.29
-12381.5
5232.47
-11475
5759.62
-10603
6176.95
-9723.65
6451.43
-8839.13
6569.84
-7958.77
6540.29
-7098.36
6380.18
-6258.17
6095.13
-5436.02
5632.4
-4593.86
4875.51
-3721.77
3663.68
-2690.01
1878.88
-1303.83
981.813
2103
-14248.2
3149.18
-18779
3677.24
-17763.8
4157.93
-16349.7
4794.52
-15186
5583.77
-14160.8
6489.35
-13287.1
7388.78
-12374.4
8188.21
-11402.4
8808.87
-10344.3
9212.08
-9242.34
9370.09
-8116.78
9262.51
-6990.78
8870.78
-5866.44
8186.68
-4751.92
7201.55
-3608.74
5913.29
-2433.52
4275.62
-1052.34
2246.61
725.18
3228.42
2537.6
-16785.8
2981.9
-19223.3
3215.2
-17997.1
3655.49
-16790
4372.26
-15902.7
5325.97
-15114.6
6445.23
-14406.4
7532.76
-13462
8455.93
-12325.6
9128.18
-11016.6
9543.4
-9657.56
9683.64
-8257.03
9511.41
-6818.55
8963.11
-5318.14
7976.56
-3765.38
6488.27
-2120.46
4577.95
-523.207
2684
841.592
917.977
2491.18
4146.4
1059.68
-17845.4
266.057
-18429.6
-296.65
-17434.4
-636.02
-16450.6
-768.782
-15770
-728.641
-15154.7
-612.827
-14522.1
-588.52
-13486.2
-744.526
-12169.5
-1081.17
-10679.9
-1543.71
-9195
-2115.05
-7685.66
-2796.67
-6136.9
-3576.97
-4537.81
-4400.58
-2941.74
-5133.55
-1387.46
-5546.58
-110.16
-5321.96
616.979
-3680.73
849.97
465.664
-1046.86
-16798.6
-2287.88
-17188.6
-3520.42
-16201.9
-4834.35
-15136.7
-6112.03
-14492.3
-7422.88
-13843.9
-8783.48
-13161.6
-10208.3
-12061.4
-11685.6
-10692.3
-13199.7
-9165.74
-14741.2
-7653.57
-16282.9
-6143.93
-17735.9
-4683.93
-18891.9
-3381.86
-19363.4
-2470.28
-18540.7
-2210.11
-15919.8
-2731.13
-11394.3
-3908.47
-5356.08
-5188.29
-4890.41
-1541.99
-15256.6
-2241.23
-16489.4
-3296.28
-15146.8
-4704.83
-13728.1
-6194.28
-13002.8
-7929.87
-12108.2
-9737.28
-11354.1
-11485.1
-10313.6
-13001.1
-9176.27
-14269.2
-7897.59
-15279.5
-6643.27
-15967.2
-5456.22
-16173.5
-4477.6
-15706.5
-3848.87
-14385.3
-3791.43
-12072
-4523.38
-8811.34
-5991.83
-5041.25
-7678.56
-1805.59
-8423.93
-6696.01
-262.398
-14994.2
98.3276
-16850.1
218.856
-15267.3
127.826
-13637.1
-7.88297
-12867.1
-318.063
-11798
-670.814
-11001.4
-936.124
-10048.3
-924.548
-9187.83
-550.92
-8271.19
203.721
-7397.89
1322.86
-6575.33
2733.47
-5888.18
4285.63
-5401.01
5681.83
-5187.61
6473.28
-5314.82
6199.1
-5717.64
4696.09
-6175.54
2338.48
-6066.3
-4357.53
375.213
-15369.4
869.708
-17344.5
1262.02
-15659.6
1663.17
-14038.2
2108.45
-13312.3
2560.38
-12249.9
3035.22
-11476.2
3557.28
-10570.3
4164.26
-9794.76
4912.86
-9019.76
5809.19
-8294.17
6820.4
-7586.51
7827.36
-6895.11
8648.64
-6222.26
9055.16
-5594.1
8786.79
-5046.42
7669.3
-4600.12
5644.38
-4150.6
2995.53
-3417.41
-1362
873.963
-16243.3
1131.18
-17601.7
1500.56
-16028.9
1934.74
-14472.4
2438.1
-13815.7
2916.05
-12727.8
3424.98
-11985.1
3925.77
-11071.1
4418.74
-10287.7
4873.82
-9474.82
5284.97
-8705.31
5640.19
-7941.71
5933.18
-7188.08
6137.32
-6426.39
6193.02
-5649.77
5964.73
-4818.12
5287.63
-3922.99
4005.39
-2868.34
2106.99
-1518.95
744.993
1115.87
-17359.1
1105.39
-17591.2
1483.31
-16406.8
1928.38
-14917.4
2455.98
-14343.2
2948.03
-13219.9
3487.98
-12525
4030.32
-11613.4
4613.86
-10871.2
5212.02
-10072.9
5816.63
-9309.89
6375.82
-8500.87
6818.61
-7630.83
7037.59
-6645.34
6924.73
-5536.88
6398.65
-4292.02
5437.42
-2961.74
4020.25
-1451.13
2097.72
403.641
2842.71
925.279
-18284.4
727.073
-17393
1043.68
-16723.4
1422.77
-15296.5
1885.15
-14805.6
2370.46
-13705.2
2934.35
-13088.9
3553.17
-12232.2
4259.84
-11577.9
5040.39
-10853.5
5884.33
-10153.8
6711.85
-9328.37
7373.85
-8292.81
7631.9
-6903.38
7283.59
-5188.55
6321.12
-3329.52
4780.42
-1421.02
2802.64
526.699
1264.58
1941.75
4107.29
137.044
-18421.4
-291.556
-16964.4
-401.191
-16613.8
-455.009
-15242.6
-476.826
-14783.8
-419.17
-13762.8
-323.313
-13184.7
-141.48
-12414
104.684
-11824
425.697
-11174.5
783.229
-10511.3
1092.2
-9637.31
1176.54
-8377.1
838.562
-6565.36
120.249
-4470.16
-539.397
-2669.76
-856.576
-1103.64
-851.284
521.58
-1166.4
2256.95
2940.89
-590.14
-17831.3
-1308.46
-16246.1
-1883.6
-16038.6
-2404.35
-14721.9
-2930.69
-14257.4
-3361.6
-13331.8
-3810.95
-12735.3
-4200.22
-12024.7
-4592.01
-11432.2
-4957.87
-10808.6
-5324.73
-10144.4
-5685.67
-9276.36
-6023.68
-8039.07
-6238.48
-6350.54
-6196.28
-4512.34
-5862.35
-3003.67
-5326.45
-1639.51
-4673.58
-131.263
-3424.4
1007.8
-483.507
-1406.55
-16424.7
-2984.53
-14668.1
-4234.77
-14788.3
-5277.59
-13679
-6237.89
-13297.1
-7006.04
-12563.7
-7706.53
-12034.8
-8291.51
-11439.7
-8816.89
-10906.8
-9261.69
-10363.8
-9600.97
-9805.15
-9714.87
-9162.45
-9380.45
-8373.48
-8324.93
-7406.05
-6524.39
-6312.87
-4355.8
-5172.24
-2071.18
-3924.11
41.6511
-2244.05
1045.22
4.29672
561.71
-1953.72
-14471
-4223.28
-12398.5
-6455.01
-12556.6
-8324.88
-11809.1
-10099.5
-11522.4
-11582.4
-11080.8
-12884.6
-10732.6
-13958.7
-10365.6
-14842.5
-10022.9
-15522.6
-9683.72
-15976.7
-9351
-16125.2
-9013.94
-15837.1
-8661.57
-14971.8
-8271.34
-13475
-7809.7
-11404.8
-7242.39
-8804.35
-6524.57
-5585.21
-5463.19
-1874.8
-3706.09
-1313.09
-5370.95
-8669.42
-12126
-14835.1
-17257.6
-19238.4
-20871
-22136.5
-23059.5
-23643.2
-23894.2
-23808.1
-23369.7
-22541
-21250.7
-19393.1
-16817.6
-13180.8
-7786.91
-5375.05
14475.1
-8676.83
12401.8
-12136.6
12559.7
-14848
11811.5
-17272.4
11524.4
-19254.4
11082
-20887.7
10733.3
-22153.2
10365.6
-23075.5
10022.3
-23657.8
9682.35
-23907
9349.15
-23819.2
9012.26
-23379.9
8660.64
-22551.3
8271.42
-21262.8
7811.56
-19410.3
7247.46
-16844
6533.69
-13218.7
5474.74
-7826.83
3708.13
1273.17
-1946
16421.1
-4203.84
14659.6
-6423.94
14779.9
-8279.25
13666.8
-10038.4
13283.5
-11503.5
12547.2
-12786.5
12016.2
-13839.3
11418.4
-14700
10882.9
-15354.4
10336.8
-15780.7
9775.48
-15900.3
9131.86
-15587.6
8347.95
-14713.5
7397.33
-13235.9
6333.94
-11215.7
5227.22
-8687.52
4005.56
-5544.16
2331.38
-1825.1
-10.911
-551.928
-1387.91
17809
-2951.61
16223.4
-4185.66
16013.9
-5214.38
14695.6
-6160.56
14229.7
-6916.09
13302.7
-7604.26
12704.4
-8178.31
11992.5
-8693.25
11397.8
-9127.83
10771.4
-9453.79
10101.5
-9544.84
9222.92
-9170.9
7974.02
-8069.89
6296.32
-6252.24
4516.3
-4088.67
3063.66
-1789.07
1705.97
288.145
254.198
1125.33
-848.061
573.405
-604.456
18413.5
-1331.47
16950.4
-1921.03
16603.5
-2459.56
15234.1
-3005.11
14775.3
-3459.63
13757.3
-3936.73
13181.5
-4358.93
12414.7
-4791.27
11830.2
-5204.13
11184.3
-5622.39
10519.7
-6031.24
9631.78
-6396.87
8339.66
-6596.63
6496.1
-6494.69
4414.36
-6073.32
2642.3
-5414.96
1047.62
-4578.65
-582.096
-3240.5
-2186.2
-2667.1
102.182
18311.3
-334.375
17386.9
-461.342
16730.5
-543.021
15315.8
-595.222
14827.5
-568.881
13730.9
-507.73
13120.4
-361.481
12268.5
-152.396
11621.1
131.63
10900.2
448.674
10202.7
711.946
9368.52
745.844
8305.78
375.453
6866.51
-306.559
5096.4
-880.111
3215.9
-1168.81
1336.38
-1293.83
-457.022
-1439.78
-2040.22
-4106.88
955.367
17355.9
692.767
17649.5
979.804
16443.4
1359.83
14935.8
1822.25
14365.1
2302.8
13250.4
2863.83
12559.3
3481.28
11651
4190.19
10912.2
4972.29
10118.1
5818.97
9356.01
6643
8544.5
7282.49
7666.29
7486.79
6662.21
7058.71
5524.49
6028.27
4246.34
4481.16
2883.5
2687.02
1337.13
1186.88
-540.068
-2920
1080.24
16275.7
1466.22
17263.6
2007.75
15901.9
2465.59
14477.9
3093.02
13737.6
3621.43
12722
4196.98
11983.8
4722.04
11126
5269.38
10364.9
5819.52
9568
6359.13
8816.41
6846.11
8057.52
7224.36
7288.04
7380.98
6505.59
7200.97
5704.51
6606.53
4840.78
5585.8
3904.23
4120.97
2801.97
2166.52
1414.38
-753.485
756.113
15519.6
1877.81
16141.9
2597.46
15182.3
2924.73
14150.6
3353.71
13308.7
3672.19
12403.5
4082.51
11573.5
4493.11
10715.4
4938.64
9919.34
5346.29
9160.35
5667.17
8495.53
5885.37
7839.31
6020.99
7152.42
6060.98
6465.6
5953.17
5812.31
5589.39
5204.56
4852.26
4641.35
3632.94
4021.29
1918.56
3128.77
1165.07
329.576
15190
987.697
15483.8
1142.29
15027.7
885.921
14407
533.187
13661.4
162.106
12774.6
-18.5383
11754.1
137.5
10559.3
846.937
9209.91
2034.36
7972.94
3360.4
7169.5
4629.37
6570.36
5721.08
6060.71
6484.1
5702.58
6814.03
5482.39
6584.96
5433.63
5713.45
5512.86
4189.56
5545.19
2205.73
5112.61
3370.8
-233.905
15423.9
-557.886
15807.7
-1229.11
15698.9
-2142.07
15320
-3185.77
14705.1
-4289.45
13878.3
-5321.53
12786.2
-6000.27
11238.1
-5799.04
9008.68
-4594.53
6768.42
-3018.5
5593.45
-1292.45
4844.3
556.592
4211.66
2387.55
3871.61
3912.37
3957.56
4732.89
4613.11
4554.99
5690.76
3401.58
6698.6
1669.56
6844.63
5040.36
-897.178
16321.1
-1778.22
16688.8
-2638.93
16559.6
-3489.76
16170.8
-4419.98
15635.3
-5522.36
14980.6
-6881.8
14145.7
-8502.72
12859
-10236.6
10742.6
-11657
8188.76
-12501.1
6437.58
-13028.6
5371.78
-13147.2
4330.26
-12640.6
3365.01
-11350.9
2667.94
-9195.48
2457.65
-6388.25
2883.53
-3514.85
3825.2
-1220.06
4549.83
3820.3
-363.058
16684.1
-810.128
17135.8
-857.565
16607
-676.39
15989.6
-451.263
15410.2
-337.552
14866.9
-485.269
14293.4
-1089.39
13463.1
-2621.7
12274.9
-5117.48
10684.5
-7658.55
8978.63
-10040.5
7753.75
-12269.3
6559.01
-14170.6
5266.32
-15351.1
3848.39
-15226.8
2333.33
-13268.1
924.871
-9310.34
-132.579
-4265.83
-494.692
-445.532
1145.71
15538.4
1790.62
16490.9
2815.99
15581.7
4049.67
14755.9
5362.56
14097.3
6668.71
13560.8
7891.61
13070.5
8891.71
12463
9319.6
11847
8743.56
11260.6
7334.8
10387.4
5654.07
9434.48
3835.65
8377.43
1927.45
7174.51
-18.4968
5794.32
-1835
4149.81
-3195.03
2284.89
-3508.6
180.971
-2644.29
-1359.03
-3089.82
1843.74
13694.7
3197.72
15136.9
4558.74
14220.6
5894.84
13419.8
7194.17
12797.9
8458.73
12296.2
9683.33
11845.8
10824.4
11321.9
11894.2
10777.2
12788.2
10366.6
13215.8
9959.77
13212.5
9437.71
12837.9
8752.08
12105.5
7906.85
10965
6934.87
9286.92
5827.86
6976.13
4595.67
4004.97
3152.12
1277.05
1368.88
-1812.77
1499.13
12195.5
2825.39
13810.7
3920.8
13125.2
4816.92
12523.7
5573.59
12041.3
6241.55
11628.2
6868.18
11219.2
7467.85
10722.2
8074.42
10170.6
8715.7
9725.27
9266.06
9409.4
9599.53
9104.23
9645.51
8706.1
9375.25
8177.09
8776.44
7533.68
7817.75
6786.55
6463.09
5950.32
4694.2
4921.01
2582.84
3480.23
770.073
923.308
11272.2
2008.74
12725.2
2817.53
12316.4
3429.99
11911.2
3995.32
11475.9
4567.17
11056.4
5147.23
10639.1
5726.51
10142.9
6306.78
9590.35
6912.84
9119.2
7537.07
8785.16
8119.53
8521.75
8575.19
8250.44
8792.16
7960.12
8636.58
7689.25
7957.1
7466.01
6675.05
7232.38
4802
6794.05
2530.44
5751.79
3300.51
326.536
10945.7
688.562
12363.2
712.434
12292.6
795.392
11828.3
1182.74
11088.6
1787.73
10451.4
2510.2
9916.66
3355.26
9297.82
4352.35
8593.26
5545.31
7926.24
6963.05
7367.41
8522.6
6962.2
9981.8
6791.24
10970.8
6971.12
11138.6
7521.42
10305.8
8298.87
8515.91
9022.24
5946.66
9363.3
3050.21
8648.24
6350.72
-1384.68
12330.3
-2614.75
13593.2
-4073.97
13751.8
-5213.23
12967.5
-5894.86
11770.2
-6338.36
10894.9
-6672.14
10250.4
-6816.02
9441.69
-6680.6
8457.84
-6179.64
7425.27
-5246.29
6434.05
-3865.43
5581.33
-2075.68
5001.48
7.72122
4887.7
2083.55
5445.58
3657.7
6724.71
4172.62
8507.31
3429.1
10106.8
1768.93
10308.4
8119.64
-1462.6
13792.9
-3902.37
16033
-6371.94
16221.3
-8689.06
15284.6
-10775.2
13856.3
-12558.9
12678.6
-14067.2
11758.8
-15442
10816.5
-16685.6
9701.44
-17760.4
8500.05
-18587.7
7261.35
-19018.8
6012.42
-18812.2
4794.83
-17665.2
3740.76
-15384.6
3164.99
-12143.2
3483.27
-8463.88
4827.96
-5004.23
6647.14
-2268.32
7572.47
5851.32
1335.69
2054.9
2716.56
3087.33
3156.83
3139.79
2779.92
2413.54
1870.64
1108.06
113.466
-1100.79
-2467.34
-3835.4
-4914.52
-5236.63
-4477.85
-2832.21
-1011.99
)
;

boundaryField
{
    outletWall
    {
        type            calculated;
        value           nonuniform List<scalar> 
60
(
94740.7
23958.2
-4437.5
-16236.5
-32307.3
-58160.7
-88290.1
-111144
-133673
-123673
-116722
-115993
-108625
-91176
-38064.7
80975.4
107637
58553.1
-72017
-101966
90531.9
74910.4
55902.8
46991.8
41593.2
39382.7
39803.3
42267.2
45409.3
48473.5
50966.3
52576.9
53030.9
52142.2
50009.4
46977.1
43458.1
39793
36400.2
33602.5
-50120
-50744.8
-68959.7
-59169.3
-50376.1
-14390.4
40653.3
66959.5
76586.3
79067.5
79222.5
70873.6
46574.5
-26038.6
-86733.7
-118321
-57863.9
84822.6
138908
125449
)
;
    }
    fineWalls
    {
        type            calculated;
        value           uniform 0;
    }
    fineFrontAndBack
    {
        type            calculated;
        value           nonuniform List<scalar> 
960
(
8.81116e-14
-1.68865e-12
-1.64448e-13
-4.54618e-14
-1.96902e-12
-3.2002e-13
2.23943e-13
-1.50184e-12
8.9236e-13
2.01401e-12
4.78067e-12
-8.71722e-12
-8.35236e-12
-8.05863e-12
-9.92812e-11
-2.37405e-11
-2.22618e-11
-1.08992e-10
-1.92987e-11
-1.82195e-11
-2.4528e-12
-2.5607e-12
-1.69074e-12
-1.50383e-12
-1.60586e-12
-1.72281e-12
-3.11383e-11
-1.53657e-12
-6.77214e-13
3.11642e-13
1.22749e-12
2.33002e-12
3.06917e-12
2.9998e-12
1.4856e-12
-8.00664e-13
-3.04069e-12
-4.81402e-12
-6.31537e-12
-8.27621e-12
-2.35018e-10
-4.05555e-11
-4.06517e-11
-3.52822e-11
-7.79295e-11
2.05223e-12
5.46908e-12
8.63186e-12
1.39449e-10
3.65504e-11
3.95366e-11
1.74099e-10
1.12703e-11
3.49676e-12
2.72441e-13
2.76662e-11
1.57971e-11
2.39381e-11
3.3968e-11
2.88114e-10
1.08283e-11
9.15616e-12
8.2249e-12
7.20829e-12
6.48601e-12
5.90232e-12
5.39493e-12
4.8249e-12
4.34821e-12
4.04303e-12
3.93679e-12
3.92602e-12
4.04528e-12
1.39624e-10
4.77388e-12
4.82446e-12
4.61248e-12
4.35525e-12
4.37468e-12
4.68651e-12
3.02671e-11
3.19609e-11
2.00186e-10
4.10907e-11
4.24076e-11
2.50204e-10
5.49918e-11
5.01457e-11
2.09145e-10
3.10311e-11
2.08783e-11
1.82464e-10
4.54292e-11
4.73237e-11
4.66579e-11
2.27525e-10
3.83962e-11
3.81222e-11
1.82896e-10
4.95191e-11
2.52587e-11
7.51727e-11
9.49802e-11
7.40524e-11
3.37445e-11
1.20287e-11
1.7838e-11
3.05523e-11
4.49197e-11
4.83872e-11
4.17409e-11
4.18103e-11
7.33074e-11
1.16142e-10
1.4598e-10
1.59629e-10
1.61013e-10
1.73274e-10
1.31275e-10
3.04846e-11
7.96093e-11
7.78135e-11
3.64607e-11
6.19412e-12
6.42749e-12
1.68613e-11
3.11032e-11
4.51777e-11
4.832e-11
4.16652e-11
4.15379e-11
7.13989e-11
1.12461e-10
1.41992e-10
1.5709e-10
1.5988e-10
1.72619e-10
1.26005e-10
3.76507e-11
8.23718e-11
5.7845e-11
2.35375e-11
2.01975e-11
2.32801e-11
1.86753e-11
3.17687e-11
4.58038e-11
4.85088e-11
4.18071e-11
4.13179e-11
6.95298e-11
1.08285e-10
1.36806e-10
1.52978e-10
1.57701e-10
1.7115e-10
1.26733e-10
4.54853e-11
8.05173e-11
4.17861e-11
2.71884e-11
4.48624e-11
4.77738e-11
2.69034e-11
3.23651e-11
4.56059e-11
4.89391e-11
4.17911e-11
4.12889e-11
6.8573e-11
1.04831e-10
1.3138e-10
1.47596e-10
1.53432e-10
1.71603e-10
1.1476e-10
5.28951e-11
7.61052e-11
3.86591e-11
4.64903e-11
7.69356e-11
7.79184e-11
3.95683e-11
3.13075e-11
4.12958e-11
4.56941e-11
4.12381e-11
4.19917e-11
6.89767e-11
1.03655e-10
1.28312e-10
1.4251e-10
1.47457e-10
1.71676e-10
1.05111e-10
5.9456e-11
7.43168e-11
4.76168e-11
6.93128e-11
1.02655e-10
1.07582e-10
6.73086e-11
3.29671e-11
3.61586e-11
4.17745e-11
4.20047e-11
4.40008e-11
7.31415e-11
1.08085e-10
1.28307e-10
1.32339e-10
1.39635e-10
1.60814e-10
1.25449e-10
6.54244e-11
7.6964e-11
5.94685e-11
8.0823e-11
1.05024e-10
1.14517e-10
9.93484e-11
5.27674e-11
3.48798e-11
4.06382e-11
4.32051e-11
4.93536e-11
8.40253e-11
1.16238e-10
1.20637e-10
1.12365e-10
1.66816e-10
1.63637e-10
2.01023e-10
7.12384e-11
8.10738e-11
6.2085e-11
6.90833e-11
7.12542e-11
7.25831e-11
8.65482e-11
9.08137e-11
5.36443e-11
3.86796e-11
4.32451e-11
5.94849e-11
9.91124e-11
1.17942e-10
9.60183e-11
1.01374e-10
2.11884e-10
3.54809e-10
4.46432e-10
7.71195e-11
8.61396e-11
5.74287e-11
3.64501e-11
1.04948e-11
-7.31681e-12
9.37985e-12
7.03092e-11
1.13962e-10
9.0122e-11
8.60822e-11
1.05887e-10
1.25058e-10
1.09004e-10
6.11468e-11
5.44196e-11
9.91988e-11
1.3782e-10
1.26773e-10
8.27108e-11
9.23808e-11
5.43189e-11
2.17776e-12
-5.89242e-11
-7.75403e-11
-5.82904e-11
-7.95897e-12
6.67731e-11
9.27676e-11
6.97357e-11
3.92494e-11
7.10376e-11
-2.01521e-11
-5.82231e-11
2.19905e-11
1.59816e-11
4.39818e-11
1.19785e-10
8.80785e-11
9.99973e-11
4.30711e-11
-6.2295e-11
-1.40543e-10
-1.16057e-10
-7.07757e-11
-2.50478e-11
1.68552e-11
4.39475e-11
3.7706e-11
1.90213e-11
6.46955e-12
-3.7908e-11
-2.99799e-11
3.8345e-12
-1.92763e-11
-1.6872e-11
4.61498e-11
9.21077e-11
1.0678e-10
3.9037e-11
-7.30945e-11
-1.23593e-10
-1.23509e-10
-9.92446e-11
-3.50227e-11
-6.09847e-12
1.30804e-11
2.14129e-11
1.94659e-11
1.45285e-11
1.08257e-11
8.11899e-12
-3.08848e-11
-1.2166e-10
-2.15528e-10
-2.22952e-10
9.44962e-11
1.13246e-10
4.63185e-11
-7.22273e-11
-1.47752e-10
-1.64811e-10
-1.24107e-10
-4.17293e-11
-2.60995e-11
-1.06562e-11
1.00294e-11
2.49821e-11
3.55704e-11
3.6921e-11
-2.16626e-12
-1.09186e-10
-2.48033e-10
-3.07742e-10
-3.41304e-10
9.68546e-11
1.18622e-10
6.04848e-11
-5.99964e-11
-1.46612e-10
-1.69145e-10
-1.21821e-10
-4.9104e-11
-3.9748e-11
-3.29998e-11
-1.12363e-11
1.29996e-11
3.40242e-11
3.40711e-11
-1.02383e-11
-8.71865e-11
-9.91694e-11
-4.44374e-11
-9.95902e-12
1.02215e-10
1.22249e-10
7.69585e-11
-4.08972e-11
-1.39405e-10
-1.71864e-10
-1.20335e-10
-5.48726e-11
-4.62917e-11
-4.72237e-11
-3.26908e-11
-8.11454e-12
1.67553e-11
2.10684e-11
-5.16523e-12
-4.63958e-11
-5.66649e-11
-6.18571e-11
-3.43179e-11
1.12724e-10
1.24845e-10
9.26739e-11
-2.15339e-11
-1.3777e-10
-1.7343e-10
-1.29136e-10
-6.56683e-11
-4.97257e-11
-5.26453e-11
-4.78303e-11
-2.73192e-11
-4.26119e-12
4.26857e-12
-7.71587e-12
-3.57548e-11
-6.05022e-11
-7.29169e-11
-4.43177e-11
1.30017e-10
1.30914e-10
1.08195e-10
-8.54199e-12
-1.44653e-10
-1.68964e-10
-1.433e-10
-8.66252e-11
-5.72568e-11
-5.37006e-11
-5.60499e-11
-4.40127e-11
-2.4968e-11
-1.33687e-11
-1.7967e-11
-4.35168e-11
-7.95801e-11
-8.01976e-11
-4.60491e-11
1.51131e-10
1.43916e-10
1.21868e-10
-1.35374e-11
-1.49373e-10
-1.63881e-10
-1.54068e-10
-1.12078e-10
-7.43307e-11
-5.78928e-11
-6.0126e-11
-5.6965e-11
-4.3356e-11
-3.0582e-11
-3.00436e-11
-6.50208e-11
-1.00423e-10
-7.86999e-11
-3.67969e-11
1.7714e-10
1.68252e-10
1.29387e-10
-4.16305e-11
-1.42879e-10
-1.6252e-10
-1.58938e-10
-1.32892e-10
-9.76818e-11
-6.87191e-11
-6.17896e-11
-6.31629e-11
-5.57227e-11
-4.41037e-11
-4.04959e-11
-9.04511e-11
-1.0868e-10
-7.41259e-11
-3.18769e-11
1.33563e-10
1.36963e-10
8.02462e-11
-6.48738e-11
-1.35951e-10
-1.6254e-10
-1.60614e-10
-1.46931e-10
-1.26554e-10
-1.00733e-10
-8.26235e-11
-7.82528e-11
-7.55432e-11
-6.82052e-11
-7.0464e-11
-1.0214e-10
-1.09093e-10
-7.03422e-11
-2.93189e-11
-8.81116e-14
1.68865e-12
1.64448e-13
4.54618e-14
1.96902e-12
3.2002e-13
-2.23943e-13
1.50184e-12
-8.9236e-13
-2.01401e-12
-4.78067e-12
8.71722e-12
8.35236e-12
8.05863e-12
9.92812e-11
2.37405e-11
2.22618e-11
1.08992e-10
1.92987e-11
1.82195e-11
2.4528e-12
2.5607e-12
1.69074e-12
1.50383e-12
1.60586e-12
1.72281e-12
3.11383e-11
1.53657e-12
6.77214e-13
-3.11642e-13
-1.22749e-12
-2.33002e-12
-3.06917e-12
-2.9998e-12
-1.4856e-12
8.00664e-13
3.04069e-12
4.81402e-12
6.31537e-12
8.27621e-12
2.35018e-10
4.05555e-11
4.06517e-11
3.52822e-11
7.79295e-11
-2.05223e-12
-5.46908e-12
-8.63186e-12
-1.39449e-10
-3.65504e-11
-3.95366e-11
-1.74099e-10
-1.12703e-11
-3.49676e-12
-2.72441e-13
-2.76662e-11
-1.57971e-11
-2.39381e-11
-3.3968e-11
-2.88114e-10
-1.08283e-11
-9.15616e-12
-8.2249e-12
-7.20829e-12
-6.48601e-12
-5.90232e-12
-5.39493e-12
-4.8249e-12
-4.34821e-12
-4.04303e-12
-3.93679e-12
-3.92602e-12
-4.04528e-12
-1.39624e-10
-4.77388e-12
-4.82446e-12
-4.61248e-12
-4.35525e-12
-4.37468e-12
-4.68651e-12
-3.02671e-11
-3.19609e-11
-2.00186e-10
-4.10907e-11
-4.24076e-11
-2.50204e-10
-5.49918e-11
-5.01457e-11
-2.09145e-10
-3.10311e-11
-2.08783e-11
-1.82464e-10
-4.54292e-11
-4.73237e-11
-4.66579e-11
-2.27525e-10
-3.83962e-11
-3.81222e-11
-1.82896e-10
-4.95191e-11
-2.52587e-11
-7.51727e-11
-9.49802e-11
-7.40524e-11
-3.37445e-11
-1.20287e-11
-1.7838e-11
-3.05523e-11
-4.49197e-11
-4.83872e-11
-4.17409e-11
-4.18103e-11
-7.33074e-11
-1.16142e-10
-1.4598e-10
-1.59629e-10
-1.61013e-10
-1.73274e-10
-1.31275e-10
-3.04846e-11
-7.96093e-11
-7.78135e-11
-3.64607e-11
-6.19412e-12
-6.42749e-12
-1.68613e-11
-3.11032e-11
-4.51777e-11
-4.832e-11
-4.16652e-11
-4.15379e-11
-7.13989e-11
-1.12461e-10
-1.41992e-10
-1.5709e-10
-1.5988e-10
-1.72619e-10
-1.26005e-10
-3.76507e-11
-8.23718e-11
-5.7845e-11
-2.35375e-11
-2.01975e-11
-2.32801e-11
-1.86753e-11
-3.17687e-11
-4.58038e-11
-4.85088e-11
-4.18071e-11
-4.13179e-11
-6.95298e-11
-1.08285e-10
-1.36806e-10
-1.52978e-10
-1.57701e-10
-1.7115e-10
-1.26733e-10
-4.54853e-11
-8.05173e-11
-4.17861e-11
-2.71884e-11
-4.48624e-11
-4.77738e-11
-2.69034e-11
-3.23651e-11
-4.56059e-11
-4.89391e-11
-4.17911e-11
-4.12889e-11
-6.8573e-11
-1.04831e-10
-1.3138e-10
-1.47596e-10
-1.53432e-10
-1.71603e-10
-1.1476e-10
-5.28951e-11
-7.61052e-11
-3.86591e-11
-4.64903e-11
-7.69356e-11
-7.79184e-11
-3.95683e-11
-3.13075e-11
-4.12958e-11
-4.56941e-11
-4.12381e-11
-4.19917e-11
-6.89767e-11
-1.03655e-10
-1.28312e-10
-1.4251e-10
-1.47457e-10
-1.71676e-10
-1.05111e-10
-5.9456e-11
-7.43168e-11
-4.76168e-11
-6.93128e-11
-1.02655e-10
-1.07582e-10
-6.73086e-11
-3.29671e-11
-3.61586e-11
-4.17745e-11
-4.20047e-11
-4.40008e-11
-7.31415e-11
-1.08085e-10
-1.28307e-10
-1.32339e-10
-1.39635e-10
-1.60814e-10
-1.25449e-10
-6.54244e-11
-7.6964e-11
-5.94685e-11
-8.0823e-11
-1.05024e-10
-1.14517e-10
-9.93484e-11
-5.27674e-11
-3.48798e-11
-4.06382e-11
-4.32051e-11
-4.93536e-11