/*--------------------------------*- C++ -*----------------------------------*\
| =========                 |                                                 |
| \\      /  F ield         | OpenFOAM: The Open Source CFD Toolbox           |
|  \\    /   O peration     | Version:  4.1                                   |
|   \\  /    A nd           | Web:      www.OpenFOAM.org                      |
|    \\/     M anipulation  |                                                 |
\*---------------------------------------------------------------------------*/
FoamFile
{
    version     2.0;
    format      ascii;
    class       volVectorField;
    location    "25";
    object      U;
}
// * * * * * * * * * * * * * * * * * * * * * * * * * * * * * * * * * * * * * //

dimensions      [0 1 -1 0 0 0 0];

internalField   nonuniform List<vector> 
1280
(
(6.36759e-17 16.3189 0.356442)
(-2.87003e-16 20.2779 -1.80703)
(-1.18842e-16 18.1185 -1.59915)
(-3.2854e-17 18.5452 -1.54235)
(-3.34654e-16 23.3451 -4.30416)
(-2.3127e-16 19.5333 -3.6763)
(1.61838e-16 22.1118 -3.88366)
(-1.21699e-15 20.947 -3.62289)
(6.16004e-16 26.4386 -7.6027)
(1.57036e-15 23.4466 -6.04175)
(3.68448e-15 24.9279 -5.33068)
(-3.20006e-15 30.2049 -10.903)
(-6.03603e-15 27.1783 -9.06794)
(-5.82376e-15 29.2619 -8.32226)
(-1.81147e-14 35.9926 -16.1118)
(-1.71566e-14 31.865 -13.4016)
(-1.6088e-14 36.393 -12.7395)
(-1.85242e-14 35.3334 -23.5444)
(-1.41293e-14 44.9436 -18.4528)
(-1.31667e-14 33.5365 -32.8567)
(-1.00628e-14 43.5651 46.5822)
(-1.05054e-14 43.597 69.3575)
(-6.93636e-15 45.7379 81.9079)
(-6.16956e-15 47.7532 90.2936)
(-6.58814e-15 48.3761 96.4703)
(-7.06794e-15 50.9767 101.435)
(-6.56407e-15 51.2547 72.9897)
(-6.30386e-15 84.2447 121.798)
(-2.77832e-15 84.9467 121.993)
(1.27853e-15 84.5956 119.564)
(5.03585e-15 83.9841 115.923)
(9.55905e-15 83.1124 112.317)
(1.25915e-14 82.1565 109.458)
(1.23069e-14 81.1093 107.399)
(6.09476e-15 80.3524 106.393)
(-3.28477e-15 79.583 106.731)
(-1.24746e-14 80.0915 108.534)
(-1.97498e-14 79.6092 110.806)
(-2.59092e-14 82.571 111.897)
(-3.39537e-14 81.4868 100.965)
(-4.09082e-14 112.847 101.523)
(-3.25747e-14 70.698 70.8824)
(-3.2652e-14 64.3218 72.1888)
(-2.8178e-14 54.1955 72.2316)
(-1.40169e-14 47.8335 81.9821)
(1.64838e-15 30.5605 51.1248)
(4.39284e-15 26.3152 46.6709)
(6.93322e-15 20.2895 38.7914)
(2.85302e-14 15.9637 29.6316)
(3.05523e-14 8.34636 10.5438)
(3.23503e-14 7.56668 6.38314)
(3.03045e-14 3.85817 7.56286)
(9.05242e-15 -1.01026 17.6711)
(2.80864e-15 -2.63081 28.4506)
(2.18828e-16 -7.54552 39.0177)
(4.81569e-15 -18.822 78.3194)
(1.314e-14 -31.02 87.0964)
(1.92274e-14 -42.4457 90.4399)
(2.72836e-14 -51.0737 89.0601)
(5.041e-14 -91.6144 121.787)
(4.44236e-14 -76.5754 106.89)
(3.75637e-14 -78.3509 111.446)
(3.37432e-14 -77.9984 107.622)
(2.95725e-14 -79.2742 105.401)
(2.66093e-14 -80.21 103.815)
(2.42147e-14 -81.2602 103.714)
(2.2133e-14 -82.024 104.594)
(1.97945e-14 -82.5457 106.058)
(1.78388e-14 -82.7293 107.553)
(1.65868e-14 -82.6211 108.718)
(1.61509e-14 -82.2117 109.478)
(1.61067e-14 -81.2329 110.315)
(1.6596e-14 -80.3258 111.25)
(2.94332e-14 -41.0826 58.4632)
(1.95851e-14 -45.5369 92.4102)
(1.97926e-14 -41.6195 88.4334)
(1.8923e-14 -40.2188 84.1827)
(1.78677e-14 -37.327 76.385)
(1.79474e-14 -34.9025 62.5805)
(1.92267e-14 -34.1175 40.0378)
(2.18732e-14 -23.3411 -36.8545)
(2.30382e-14 -34.2418 -29.7866)
(3.40236e-14 -18.4918 -37.4672)
(2.96952e-14 -20.8022 -21.5672)
(3.06469e-14 -14.8374 -23.6896)
(4.37592e-14 -12.6394 -28.6045)
(3.97412e-14 -7.57446 -16.2134)
(3.6239e-14 -4.34484 -18.0432)
(3.76269e-14 -1.12273 -24.4715)
(2.13987e-14 2.39691 -17.5966)
(1.50882e-14 5.43611 -16.4964)
(3.4185e-14 9.87143 -21.4988)
(3.32191e-14 11.1321 -15.0579)
(3.41996e-14 14.4195 -14.9261)
(3.37184e-14 15.3607 -13.9049)
(3.867e-14 21.7556 -19.8487)
(2.77479e-14 21.005 -14.163)
(2.75499e-14 24.6665 -12.633)
(3.10717e-14 25.2306 -18.2396)
(3.57861e-14 31.1614 -18.3327)
(2.80652e-15 -34.0136 28.0892)
(8.35253e-15 -24.3544 26.4121)
(1.05534e-14 20.2273 11.5768)
(8.22805e-15 36.1313 5.37868)
(3.74939e-15 27.5574 10.4964)
(1.33652e-15 -11.3834 7.94841)
(1.982e-15 -29.7753 4.68886)
(3.3947e-15 -35.9819 4.26852)
(4.99108e-15 -38.4699 2.71293)
(5.37635e-15 -38.7308 0.0912234)
(4.63788e-15 -41.0562 -3.38412)
(4.64559e-15 -44.4307 -6.1608)
(8.14527e-15 -36.95 -9.88519)
(1.29047e-14 -29.3785 -14.8928)
(1.622e-14 -19.4164 -19.7473)
(1.77366e-14 -10.8385 -23.7462)
(1.78903e-14 -5.47347 -26.5643)
(1.92527e-14 -1.41486 -26.9699)
(1.45861e-14 7.81731 -27.6372)
(3.38718e-15 -33.5804 30.6773)
(8.84548e-15 -17.1654 26.1406)
(8.64594e-15 25.7013 11.6401)
(4.05119e-15 36.1695 15.3166)
(6.88235e-16 25.3801 25.8249)
(7.14166e-16 -10.9613 17.8172)
(1.87348e-15 -29.9181 6.44675)
(3.45591e-15 -35.6771 5.94566)
(5.01974e-15 -37.422 3.9405)
(5.36888e-15 -36.9056 0.911004)
(4.62947e-15 -39.2685 -2.65043)
(4.61532e-15 -42.4861 -5.16277)
(7.93321e-15 -34.092 -8.86455)
(1.24957e-14 -26.0066 -14.2208)
(1.57768e-14 -16.1453 -19.7845)
(1.74544e-14 -8.15144 -25.072)
(1.77645e-14 -4.06911 -28.6781)
(1.91799e-14 -1.58381 -29.9778)
(1.40006e-14 4.65669 -24.7696)
(4.18341e-15 -33.095 33.5211)
(9.15243e-15 -13.8043 27.8279)
(6.42723e-15 24.5058 19.4591)
(2.61528e-15 32.0763 29.3944)
(2.24416e-15 24.6911 39.1021)
(2.58668e-15 -4.52988 29.9982)
(2.07503e-15 -26.1539 12.5891)
(3.52986e-15 -34.5434 8.63111)
(5.08931e-15 -36.3948 6.34814)
(5.38987e-15 -35.7 2.54481)
(4.64523e-15 -38.1247 -1.07742)
(4.59088e-15 -41.2565 -3.46997)
(7.72554e-15 -32.4949 -6.98551)
(1.20317e-14 -24.1109 -12.9405)
(1.52007e-14 -14.2357 -19.4544)
(1.69976e-14 -6.65604 -26.4732)
(1.75224e-14 -3.33181 -31.624)
(1.90167e-14 -2.47416 -32.8374)
(1.40814e-14 3.47524 -26.2246)
(5.05392e-15 -32.5296 36.5222)
(8.94637e-15 -10.6286 31.9166)
(4.6429e-15 23.5092 31.6858)
(3.02094e-15 28.6339 45.2068)
(4.98471e-15 24.1545 54.4612)
(5.3082e-15 2.08153 45.0628)
(2.98927e-15 -21.1873 21.8278)
(3.59612e-15 -32.5462 13.2282)
(5.06732e-15 -35.0915 9.56857)
(5.43768e-15 -33.6477 4.69677)
(4.64346e-15 -37.1663 -0.71561)
(4.58766e-15 -40.6445 -0.914982)
(7.61922e-15 -30.6006 -4.40717)
(1.16479e-14 -21.6012 -10.9151)
(1.45978e-14 -11.2026 -18.3565)
(1.63995e-14 -3.66783 -27.4014)
(1.7048e-14 -1.8219 -34.6574)
(1.90671e-14 -4.68244 -35.2347)
(1.27511e-14 -1.4678 -29.2168)
(5.87723e-15 -32.2769 39.3476)
(8.45614e-15 -10.1782 37.8999)
(4.29546e-15 18.7143 46.3563)
(5.16559e-15 23.6972 62.3928)
(8.5484e-15 23.8221 72.2865)
(8.6576e-15 9.86136 64.7142)
(4.39648e-15 -14.6322 34.9054)
(3.47861e-15 -29.3564 20.0297)
(4.58842e-15 -33.212 13.9651)
(5.07712e-15 -32.0231 7.12598)
(4.58201e-15 -36.0118 7.29819)
(4.66574e-15 -39.4163 2.23414)
(7.66407e-15 -28.4686 -0.373404)
(1.15172e-14 -18.6396 -7.84232)
(1.42569e-14 -7.43167 -16.0138)
(1.58345e-14 0.151378 -26.4598)
(1.63841e-14 0.0863076 -37.4007)
(1.90752e-14 -3.85335 -38.5856)
(1.1679e-14 1.28177 -33.997)
(6.60622e-15 -32.7155 41.7736)
(8.25742e-15 -12.4581 44.9906)
(5.29075e-15 12.8831 61.5257)
(7.70143e-15 18.4249 79.527)
(1.14061e-14 22.7484 91.4724)
(1.19535e-14 17.4289 88.8222)
(7.47873e-15 -4.16057 57.7136)
(3.66301e-15 -23.5115 29.6579)
(4.01762e-15 -30.1418 20.5761)
(4.64161e-15 -30.1844 13.789)
(4.66719e-15 -35.1661 16.88)
(4.88897e-15 -38.1383 8.52865)
(8.12683e-15 -26.2916 4.94848)
(1.20095e-14 -15.3142 -2.95942)
(1.42564e-14 -3.60758 -10.6915)
(1.47044e-14 5.41019 -18.2199)
(1.5515e-14 2.78443 -31.0382)
(1.78682e-14 -8.40751 -34.7531)
(1.39388e-14 -9.22227 -41.5619)
(7.26938e-15 -34.0219 43.4935)
(8.55156e-15 -17.496 51.0578)
(6.60761e-15 4.91778 74.419)
(8.98034e-15 11.8185 95.0642)
(1.16693e-14 19.9637 109.431)
(1.27241e-14 23.0261 113.129)
(1.10387e-14 9.58502 89.7644)
(5.86304e-15 -14.5905 47.4836)
(3.87553e-15 -26.7928 31.1174)
(4.51536e-15 -30.2803 25.5147)
(4.80057e-15 -34.228 24.7795)
(5.48373e-15 -34.7383 15.1577)
(9.33614e-15 -23.9209 10.2906)
(1.29153e-14 -12.6995 3.92804)
(1.34041e-14 -1.29704 0.559646)
(1.2485e-14 8.13224 4.13841)
(1.85351e-14 10.934 13.0883)
(1.81819e-14 8.16628 -7.42918)
(2.23359e-14 12.1577 -27.5306)
(7.91538e-15 -36.0193 44.2149)
(9.00821e-15 -24.4525 54.2936)
(6.89834e-15 -4.62363 81.3471)
(7.67592e-15 4.27263 105.929)
(7.91713e-15 15.6005 120.974)
(8.06479e-15 25.2345 128.175)
(9.61647e-15 22.0263 116.588)
(1.00904e-14 -0.470473 78.6931)
(5.96048e-15 -21.1441 46.2509)
(4.29773e-15 -28.1392 38.5271)
(4.80501e-15 -31.2489 33.1907)
(6.60943e-15 -31.7152 22.3845)
(1.10125e-14 -21.8487 15.7339)
(1.31047e-14 -11.4783 13.3788)
(1.06687e-14 -3.80494 20.75)
(1.12637e-14 0.454136 43.5015)
(2.35427e-14 0.28228 75.7458)
(3.94233e-14 -10.7258 103.855)
(4.96035e-14 -41.89 116.702)
(8.56884e-15 -38.2593 43.8269)
(9.57107e-15 -32.0562 54.2396)
(6.38097e-15 -15.4341 80.6817)
(4.05001e-15 -4.10186 107.854)
(1.16609e-15 11.1133 120.095)
(-8.12979e-16 24.9678 123.031)
(1.04221e-15 29.2911 119.803)
(7.81213e-15 14.1461 102.627)
(1.26624e-14 -11.2173 67.5847)
(1.00136e-14 -24.6364 48.865)
(9.56469e-15 -27.9136 40.2915)
(1.17653e-14 -27.7363 28.8697)
(1.38953e-14 -20.2912 22.844)
(1.21116e-14 -14.6672 30.6912)
(6.79409e-15 -13.0928 52.582)
(6.04663e-15 -12.3694 80.7236)
(1.10221e-14 -9.65776 106.694)
(1.53133e-14 -5.96242 121.21)
(1.40859e-14 -6.30705 107.685)
(9.19009e-15 -40.356 42.4771)
(1.02645e-14 -39.0788 51.9553)
(6.03543e-15 -25.8252 75.1016)
(2.41973e-16 -11.5487 100.025)
(-6.54713e-15 9.49704 102.629)
(-8.61558e-15 25.3441 94.0678)
(-6.81869e-15 30.2588 93.7506)
(-8.8433e-16 20.2987 101.878)
(7.41924e-15 0.216689 91.5272)
(1.03075e-14 -16.8843 68.0737)
(7.74841e-15 -23.4241 54.7209)
(3.51129e-15 -24.6952 45.7144)
(7.89306e-15 -22.8845 47.0789)
(-2.23912e-15 -23.1413 62.2377)
(-8.0011e-15 -23.5055 82.4778)
(2.44338e-15 -20.6827 97.4699)
(1.77573e-15 -14.5503 103.396)
(4.88687e-15 -7.3482 93.7495)
(1.33094e-14 -0.768941 56.9317)
(9.78649e-15 -42.1846 40.3924)
(1.11108e-14 -44.9892 48.6107)
(4.78568e-15 -34.4239 67.1425)
(-6.92167e-15 -15.4602 86.2913)
(-1.56159e-14 13.1592 76.0233)
(-1.28952e-14 28.3504 58.852)
(-6.82256e-15 26.2909 59.4086)
(-2.78309e-15 14.7385 84.8069)
(1.8728e-15 2.20301 101.01)
(4.88306e-15 -10.2093 93.4574)
(4.18956e-15 -19.0864 82.2785)
(2.11348e-15 -24.2909 76.3529)
(7.18839e-16 -26.7179 79.2615)
(-4.212e-15 -28.791 87.9428)
(-3.3311e-15 -27.668 97.4375)
(4.26056e-16 -21.1254 102.331)
(-2.14181e-15 -9.12204 101.378)
(-1.87467e-15 6.42399 94.0665)
(5.12775e-15 20.5923 67.9277)
(1.02342e-14 -43.7494 37.835)
(1.18645e-14 -49.6546 45.0491)
(4.33745e-15 -40.7572 58.8959)
(-8.12161e-15 -15.7425 72.635)
(-1.37325e-14 19.8938 57.6179)
(-1.37232e-14 32.2969 41.1604)
(-1.10272e-14 20.2048 43.4559)
(-3.89142e-15 3.84067 72.4251)
(-6.77607e-16 -3.07182 94.4922)
(1.45338e-15 -9.43668 99.7679)
(2.37921e-15 -16.7999 98.0971)
(2.16288e-15 -23.4484 95.1658)
(1.61428e-15 -27.7129 95.5835)
(1.20285e-15 -30.5872 99.6301)
(9.0211e-16 -29.3479 104.727)
(-3.43164e-15 -22.3574 109.409)
(-1.35178e-14 -9.99314 113.651)
(-2.39476e-14 6.93172 114.314)
(-2.47725e-14 29.7646 99.3205)
(1.04996e-14 -45.1678 35.2155)
(1.25829e-14 -53.2763 41.7239)
(5.1465e-15 -45.3455 51.4345)
(-8.02526e-15 -14.9044 61.1072)
(-1.64169e-14 25.3076 47.2696)
(-1.83123e-14 34.5379 35.265)
(-1.37897e-14 13.8881 40.7733)
(-4.63659e-15 -5.47749 62.9627)
(-2.89994e-15 -8.67604 78.7574)
(-1.18402e-15 -11.7086 87.4932)
(1.11438e-15 -17.2492 92.0827)
(2.77579e-15 -23.2902 93.3395)
(3.95227e-15 -28.4582 94.507)
(4.10233e-15 -32.186 97.3938)
(-2.40696e-16 -31.405 99.9575)
(-1.21317e-14 -23.9369 96.5566)
(-2.75592e-14 -9.68142 78.5185)
(-3.41936e-14 9.48874 51.2708)
(-3.79226e-14 45.545 51.6525)
(1.07616e-14 -46.4101 33.1673)
(1.31803e-14 -55.9428 38.9654)
(6.72054e-15 -48.467 45.3237)
(-6.66627e-15 -13.7356 51.3338)
(-1.62902e-14 29.4286 38.474)
(-1.87938e-14 35.4603 30.3912)
(-1.35356e-14 9.16507 38.0932)
(-5.456e-15 -11.2385 50.1143)
(-4.41644e-15 -13.0592 60.4363)
(-3.66664e-15 -14.7466 68.7067)
(-1.24848e-15 -19.0531 74.6013)
(1.4444e-15 -24.395 78.0042)
(3.78046e-15 -29.5713 81.7716)
(3.78568e-15 -32.7867 83.4887)
(-1.13759e-15 -28.9891 80.1787)
(-9.68738e-15 -14.3832 60.8011)
(-1.10188e-14 6.55172 23.0058)
(-4.93749e-15 15.7625 2.63519)
(-1.10656e-15 1.87135 -23.4303)
(1.13572e-14 -47.5836 32.8227)
(1.35832e-14 -57.9972 37.2821)
(8.55095e-15 -50.4759 40.8782)
(-4.54414e-15 -11.9076 42.7245)
(-1.54894e-14 32.8072 29.3558)
(-1.9096e-14 35.3061 25.4644)
(-1.33706e-14 6.00098 33.8478)
(-6.09696e-15 -14.4671 38.3022)
(-5.14353e-15 -16.2207 44.6443)
(-5.24707e-15 -17.453 51.6576)
(-3.63231e-15 -21.1079 57.2316)
(-9.01616e-16 -25.9947 60.8147)
(1.8617e-15 -30.4744 64.1783)
(2.34093e-15 -31.4194 62.4225)
(-5.73914e-16 -22.3151 52.9097)
(-5.15509e-15 -1.85089 28.3305)
(-6.2961e-15 15.1816 3.89283)
(-6.87301e-15 25.0576 -0.439452)
(-3.8131e-15 14.2032 -20.7556)
(1.25249e-14 -48.1942 34.6768)
(1.38717e-14 -58.8529 36.9456)
(1.02971e-14 -50.7604 38.2555)
(-2.39266e-15 -8.65871 35.1357)
(-1.53078e-14 35.4379 20.0508)
(-1.927e-14 34.2456 21.8938)
(-1.43485e-14 4.22902 27.9599)
(-7.29648e-15 -15.7931 27.805)
(-5.52508e-15 -18.4167 32.3138)
(-5.84948e-15 -19.7522 38.2185)
(-5.31447e-15 -22.7341 42.9851)
(-3.03547e-15 -27.1136 46.1326)
(-4.73466e-16 -30.2664 46.5651)
(4.74286e-16 -28.3796 41.6112)
(-8.57319e-16 -15.3776 29.3723)
(-3.97275e-15 5.60827 9.64833)
(-6.72247e-15 18.222 -4.71079)
(-8.10187e-15 25.6 -4.8838)
(-4.92418e-15 15.8396 -12.2805)
(1.44463e-14 -48.6934 39.1743)
(1.4546e-14 -59.4506 38.1852)
(1.20217e-14 -50.3593 37.3492)
(-9.49111e-16 -4.22676 28.0528)
(-1.60726e-14 37.0845 11.6409)
(-1.87738e-14 32.5985 19.5414)
(-1.59222e-14 3.98988 21.1261)
(-9.62503e-15 -16.6736 18.8602)
(-6.36186e-15 -20.4421 22.6382)
(-5.96673e-15 -21.8157 27.7062)
(-6.22777e-15 -24.1536 31.5711)
(-4.89029e-15 -27.4683 33.2668)
(-2.77423e-15 -28.7182 31.3248)
(-1.48542e-15 -24.7069 24.9685)
(-1.99633e-15 -9.59707 12.8498)
(-4.8352e-15 10.8769 -2.14831)
(-8.84223e-15 21.1816 -10.2883)
(-8.91084e-15 26.5935 -7.54326)
(-5.11657e-15 19.1384 -9.32466)
(1.67924e-14 -47.5837 46.6185)
(1.59906e-14 -57.4154 41.7718)
(1.35408e-14 -46.6289 38.9653)
(-1.50416e-15 2.81976 22.0623)
(-1.6597e-14 37.9373 7.1391)
(-1.8209e-14 30.7993 16.629)
(-1.71186e-14 5.21953 14.9032)
(-1.24531e-14 -16.6015 11.8251)
(-8.25897e-15 -21.8018 14.9614)
(-6.43253e-15 -23.3953 19.3796)
(-6.68067e-15 -25.013 22.417)
(-6.32944e-15 -27.013 22.9242)
(-4.81733e-15 -26.6783 19.7458)
(-3.398e-15 -20.9758 13.2467)
(-3.33818e-15 -4.45797 1.78654)
(-7.22453e-15 14.3978 -10.3398)
(-1.11581e-14 21.213 -12.3243)
(-8.74444e-15 24.8761 -8.0389)
(-4.08854e-15 19.0256 -8.15412)
(1.96823e-14 -47.3613 62.427)
(1.86947e-14 -57.2702 50.8968)
(1.43763e-14 -44.0633 41.9416)
(-4.62561e-15 9.89927 14.0303)
(-1.58754e-14 38.6118 7.42801)
(-1.80578e-14 29.3826 12.6674)
(-1.76597e-14 5.957 11.2156)
(-1.47658e-14 -17.4113 6.72485)
(-1.08535e-14 -23.5167 8.52221)
(-7.63545e-15 -24.8532 12.7172)
(-6.86551e-15 -25.4699 15.694)
(-7.0181e-15 -26.4363 15.8038)
(-6.19141e-15 -24.8859 12.3008)
(-4.90041e-15 -17.9628 6.16325)
(-4.49955e-15 1.16696 -5.99886)
(-1.00501e-14 16.2783 -12.2431)
(-1.20756e-14 20.851 -12.0262)
(-8.23621e-15 24.3271 -8.30053)
(-3.54188e-15 19.27 -8.10346)
(1.48404e-14 -42.1421 75.4642)
(1.52181e-14 -47.1022 59.4441)
(8.91625e-15 -29.4127 42.8263)
(-7.2082e-15 16.9803 13.8782)
(-1.51056e-14 39.0246 8.16064)
(-1.806e-14 29.1979 9.41545)
(-1.7846e-14 9.35862 10.5512)
(-1.63256e-14 -15.7728 4.62435)
(-1.40616e-14 -23.6839 3.17998)
(-1.11926e-14 -26.3988 4.69954)
(-9.18038e-15 -26.328 7.09125)
(-8.69476e-15 -25.5941 7.19208)
(-8.39369e-15 -22.4556 4.48865)
(-7.57836e-15 -13.8408 0.192482)
(-7.82933e-15 4.1399 -8.23829)
(-1.13489e-14 16.4102 -11.7417)
(-1.21215e-14 19.6524 -11.9984)
(-7.8158e-15 22.9401 -8.66248)
(-3.25766e-15 17.121 -8.98588)
(-7.52792e-15 118.336 204.738)
(-5.66546e-14 148.54 252.958)
(-4.48048e-14 147.194 246.171)
(-4.08008e-14 139.414 229.754)
(-3.90705e-14 130.575 211.462)
(-3.7143e-14 120.619 193.539)
(-2.45241e-14 109.507 173.56)
(-1.34713e-14 98.5658 156.795)
(-2.26228e-16 86.1442 136.43)
(1.47835e-14 72.0978 114.459)
(3.08938e-14 58.0957 92.2561)
(5.22776e-14 45.7681 72.9722)
(6.83661e-14 36.9152 59.9729)
(6.95671e-14 33.3876 56.5519)
(4.03186e-14 37.9414 66.5819)
(3.11548e-15 50.9489 90.6755)
(-2.23836e-14 70.2306 123.06)
(-3.07947e-14 86.7779 154.167)
(-3.55938e-14 96.5054 163.501)
(-4.73579e-14 71.1987 130.488)
(-8.16945e-15 99.1315 170.094)
(-5.90197e-14 124.888 223.165)
(-4.41822e-14 126.054 221.137)
(-4.62264e-14 116.604 207.585)
(-4.76816e-14 106.535 187.973)
(-5.62333e-14 95.1415 169.533)
(-4.36863e-14 85.7018 152.642)
(-3.73366e-14 76.4294 136.564)
(-3.38565e-14 68.1313 121.226)
(-3.20628e-14 60.6122 106.125)
(-2.96331e-14 54.3918 91.7854)
(-2.85468e-14 49.6186 78.937)
(-3.54622e-14 46.8157 69.1576)
(-4.01222e-14 47.9019 66.7464)
(-5.46261e-14 55.1501 75.7089)
(-6.81308e-14 67.3573 96.4219)
(-7.10653e-14 82.7068 123.253)
(-6.06334e-14 93.3688 148.414)
(-5.14757e-14 96.1003 155.369)
(-6.7953e-14 72.7347 127.199)
(-4.27485e-16 96.4721 164.506)
(-1.83321e-14 135.83 238.077)
(-1.28738e-14 141.702 240.356)
(-1.44668e-14 133.746 226.92)
(-1.45148e-14 124.874 207.27)
(-3.57732e-14 114.488 187.692)
(-2.88124e-14 106.183 170.525)
(-2.91589e-14 99.5342 156.686)
(-3.36142e-14 94.3151 144.766)
(-3.80501e-14 89.7431 133.636)
(-4.22534e-14 85.4412 122.428)
(-4.52089e-14 81.1285 110.816)
(-4.60964e-14 76.8844 99.0118)
(-5.01804e-14 73.1439 88.6446)
(-5.48811e-14 71.1203 82.5409)
(-5.6658e-14 71.463 83.7852)
(-5.41788e-14 74.177 92.385)
(-4.66708e-14 76.236 104.026)
(-4.01089e-14 72.1927 107.462)
(-5.67246e-14 50.9675 81.5469)
(5.68787e-16 97.4319 163.881)
(5.88146e-15 143.946 248.255)
(4.45814e-15 148.742 249.766)
(4.59682e-15 139.471 233.678)
(5.58374e-15 129.217 213.428)
(-1.86368e-14 118.765 193.973)
(-1.90532e-14 110.123 177.103)
(-2.11546e-14 103.049 162.912)
(-2.3848e-14 97.0271 150.669)
(-2.65717e-14 91.5837 139.539)
(-2.98135e-14 86.3774 129.004)
(-3.39586e-14 81.2525 118.676)
(-3.36612e-14 76.059 108.246)
(-3.63067e-14 70.784 97.5489)
(-3.79071e-14 65.4168 87.0748)
(-3.97143e-14 60.5849 78.0624)
(-4.18245e-14 55.9695 72.1284)
(-4.34944e-14 51.8307 68.0764)
(-4.71351e-14 42.3918 61.246)
(-7.41883e-14 21.9192 28.2286)
(-1.59157e-16 104.644 175.591)
(-1.16834e-15 155.486 264.598)
(-9.32168e-16 156.329 260.998)
(-8.97112e-16 145.271 241.224)
(-1.2632e-15 134.089 220.324)
(4.32526e-15 124.126 201.41)
(5.37777e-15 115.951 185.517)
(5.4047e-15 109.125 171.549)
(5.81868e-15 102.767 158.641)
(6.37492e-15 96.5092 146.118)
(7.05282e-15 90.1118 133.862)
(7.40379e-15 83.6285 121.938)
(7.11336e-15 77.0491 110.483)
(6.87768e-15 70.4935 99.3794)
(6.33837e-15 63.603 88.4327)
(5.78283e-15 56.5421 77.0317)
(5.80937e-15 48.113 65.2098)
(6.75776e-15 39.2931 51.5409)
(9.15798e-15 23.8266 33.3125)
(1.47802e-14 5.70569 -1.25487)
(2.51112e-17 118.881 198.859)
(1.65278e-16 168.272 281.464)
(1.35977e-16 162.645 269.727)
(1.19627e-16 151.124 247.424)
(1.89448e-16 140.281 227.7)
(-7.14633e-16 132.136 210.332)
(-9.41076e-16 125.125 195.696)
(-9.18048e-16 119.077 181.69)
(-9.04007e-16 112.64 167.675)
(-9.12554e-16 105.677 153.04)
(-9.35338e-16 97.9867 137.966)
(-8.81707e-16 89.7504 122.677)
(-7.2856e-16 81.0127 107.518)
(-5.34652e-16 71.9784 92.6074)
(-2.44487e-16 62.3573 78.0691)
(1.42636e-16 52.4456 63.3262)
(4.98731e-16 40.77 48.012)
(6.2838e-16 28.4442 29.3852)
(1.24551e-16 6.5502 3.7704)
(6.70729e-15 -8.51062 -33.5098)
(-2.52353e-18 141.08 240.445)
(-1.6599e-17 179.029 297.061)
(-1.25379e-17 165.26 277.608)
(-9.09123e-18 155.811 256.518)
(-1.69015e-17 146.192 240.595)
(9.36081e-17 140.892 226.56)
(1.22226e-16 135.258 214.416)
(1.12013e-16 129.98 200.453)
(9.52467e-17 122.668 184.685)
(7.80725e-17 114.188 166.912)
(6.07603e-17 104.423 148.239)
(3.61917e-17 94.0013 129.067)
(1.35273e-18 82.8092 109.754)
(-5.12556e-17 70.9726 90.2432)
(-1.42608e-16 58.0365 70.6755)
(-2.91535e-16 44.3155 50.504)
(-5.109e-16 28.4113 30.1993)
(-7.4589e-16 12.9838 7.3475)
(-8.36928e-16 -12.2845 -19.7129)
(5.88181e-16 -22.195 -58.9769)
(8.61796e-20 156.784 275.503)
(7.60235e-19 174.433 294.105)
(2.80671e-20 157.012 275.871)
(-4.37347e-19 150.5 259.814)
(1.48106e-19 140.774 248.458)
(-1.3311e-17 136.724 238.28)
(-1.51232e-17 129.938 228.711)
(-1.21679e-17 122.477 213.716)
(-7.83261e-18 110.609 194.676)
(-3.01956e-18 97.6094 172.426)
(1.50489e-18 83.2198 149.659)
(5.3262e-18 68.7598 126.237)
(1.04734e-17 53.253 101.951)
(2.96748e-17 36.9417 76.1921)
(8.84423e-17 19.6524 49.1019)
(1.7256e-16 1.20011 20.1205)
(4.13175e-17 -15.6445 -6.79834)
(-5.1331e-16 -25.7845 -26.8844)
(-9.9873e-16 -44.0748 -51.2554)
(-9.41414e-16 -32.5784 -60.8017)
(5.92762e-20 151.804 272.67)
(2.35801e-19 157.03 272.2)
(3.50493e-19 142.494 259.848)
(4.06356e-19 135.043 245.59)
(5.28417e-19 124.368 235.884)
(1.44072e-18 118.453 227.008)
(9.04125e-19 108.715 217.003)
(-2.08813e-19 96.9809 199.971)
(-1.75455e-18 80.8833 178.225)
(-3.66836e-18 64.3888 154.174)
(-5.7632e-18 47.4232 130.584)
(-7.23424e-18 30.7116 106.77)
(-4.48747e-18 13.4764 82.4464)
(1.12453e-17 -3.43614 57.8603)
(4.36989e-17 -18.7869 34.578)
(5.3237e-17 -30.5069 14.3082)
(-4.61816e-17 -35.583 0.111882)
(-2.6414e-16 -28.3638 -0.831165)
(-4.32368e-16 -7.08327 17.1728)
(-2.86418e-16 11.9304 36.1053)
(-2.84965e-20 135.272 242.85)
(-9.15593e-20 146.429 255.418)
(-1.02667e-19 129.998 237.327)
(-9.75128e-20 120.263 218.645)
(-4.56796e-20 108.445 208.387)
(6.61616e-20 101.1 197.258)
(3.63112e-19 89.4403 186.249)
(7.63321e-19 77.146 169.412)
(8.65299e-19 61.3534 149.017)
(-4.65468e-19 45.7461 126.107)
(-3.33459e-18 29.9909 103.228)
(-2.49997e-18 15.3431 80.7081)
(1.15547e-17 2.424 60.2864)
(3.79377e-17 -6.25516 45.0501)
(5.43185e-17 -7.14563 40.5588)
(3.7646e-17 3.77004 53.0698)
(-1.44369e-18 26.9842 83.4701)
(-2.19348e-17 56.0472 120.735)
(4.03068e-19 77.9214 141.951)
(2.80834e-17 59.4089 113.39)
(7.34909e-21 128.606 228.746)
(1.96848e-20 149.995 253.815)
(1.96574e-20 130.472 230.645)
(1.26626e-20 122.605 205.85)
(-1.91736e-20 109.781 193.825)
(-7.47812e-20 104.333 177.381)
(-1.26776e-19 93.3146 165.104)
(-1.07653e-19 85.9186 149.84)
(4.68205e-20 75.7975 135.169)
(6.90725e-20 67.4247 118.663)
(-6.49123e-19 59.0211 102.866)
(-1.72509e-18 53.0736 88.7296)
(-1.04111e-18 49.7269 78.6251)
(3.12223e-18 49.8166 73.8524)
(9.26182e-18 54.0344 76.0192)
(1.27706e-17 61.7651 85.8535)
(1.11138e-17 71.7898 100.725)
(7.00665e-18 77.7816 115.581)
(3.93288e-18 76.5945 117.614)
(9.42618e-20 54.1092 92.948)
(-1.32126e-21 129.895 231.899)
(-3.15427e-21 158.781 264.099)
(-2.56748e-21 135.411 238.518)
(-9.13654e-23 129.997 213.148)
(8.90902e-21 117.326 201.513)
(2.27991e-20 113.674 185.123)
(3.02867e-20 104.368 172.975)
(1.94607e-20 99.1819 159.026)
(-2.64144e-20 92.5636 147.368)
(-6.92118e-20 87.7242 135.885)
(2.7085e-20 82.9976 125.138)
(3.13658e-19 78.8361 114.498)
(4.79234e-19 74.8196 103.885)
(2.90835e-21 70.796 93.5683)
(-1.42143e-18 66.9412 84.5017)
(-3.76954e-18 63.5821 78.2793)
(-6.66052e-18 60.6567 75.677)
(-9.00676e-18 57.224 74.8232)
(-8.88749e-18 48.651 69.4255)
(-4.64339e-18 28.5816 41.4808)
(1.57951e-22 134.822 241.433)
(2.56601e-22 164.554 269.933)
(-4.22484e-23 137.454 243.685)
(-6.76644e-22 134.914 219.181)
(-2.50197e-21 121.415 208.467)
(-4.7967e-21 118.661 192.156)
(-4.63411e-21 109.379 180.477)
(-2.89951e-22 104.264 166.526)
(1.01141e-20 97.2663 154.296)
(2.08223e-20 91.4427 141.899)
(1.23764e-20 85.4655 130.288)
(-2.79137e-20 79.8325 119.128)
(-6.43959e-20 74.2866 108.459)
(-1.49132e-20 68.8616 98.075)
(1.8573e-19 63.1405 87.8249)
(5.69632e-19 57.1421 77.2284)
(1.20275e-18 49.5485 66.1751)
(2.19845e-18 41.0442 53.3239)
(3.35292e-18 26.359 36.3911)
(4.50303e-18 7.46496 1.97803)
(5.91949e-25 142.298 258.251)
(7.50003e-23 168.157 271.554)
(1.89035e-22 138.531 249.393)
(3.32778e-22 140.471 225.983)
(5.92595e-22 124.837 216.47)
(7.09785e-22 123.675 199.288)
(1.12518e-22 113.326 188.083)
(-1.36702e-21 109.01 173.88)
(-3.63082e-21 101.812 161.97)
(-5.34595e-21 96.3537 149.317)
(-4.13403e-21 90.3047 137.207)
(3.564e-22 84.4607 124.824)
(2.99893e-21 78.1667 112.245)
(-4.85036e-21 71.4041 99.1141)
(-2.752e-20 63.45 85.3597)
(-6.47474e-20 54.3964 70.2167)
(-1.28681e-19 42.6822 53.5056)
(-2.46548e-19 30.0545 33.4926)
(-6.10555e-19 8.6347 7.91642)
(1.10359e-18 -6.84937 -28.7563)
(-8.22343e-24 149.089 276.571)
(-5.26329e-23 169.535 270.4)
(-9.34121e-23 139.457 256.167)
(-1.34245e-22 145.615 233.808)
(-1.58907e-22 127.752 225.671)
(-6.36939e-23 128.555 208.354)
(2.61206e-22 117.338 198.207)
(8.17583e-22 114.349 184.426)
(1.47994e-21 107.329 173.548)
(1.87269e-21 102.991 161.703)
(1.63118e-21 97.6423 150.398)
(9.23406e-22 92.3913 137.964)
(4.55107e-22 85.7082 123.869)
(6.346e-22 77.0439 106.809)
(5.62601e-22 65.1573 86.6441)
(-1.22277e-21 51.0572 63.7462)
(-5.08537e-21 33.9692 39.9617)
(-3.22143e-21 17.7197 14.2585)
(-1.09275e-19 -9.34874 -15.6205)
(-5.91841e-20 -20.2976 -53.3474)
(4.13757e-24 150.449 286.149)
(2.19452e-23 166.443 264.952)
(3.16225e-23 137.264 258.638)
(2.90853e-23 144.982 237.1)
(4.48137e-24 125.529 230.191)
(-4.24943e-23 126.853 213.68)
(-6.50337e-23 114.779 204.923)
(-1.39116e-23 112.199 192.395)
(8.79931e-23 104.742 183.188)
(1.09094e-22 100.668 172.792)
(-2.42073e-22 94.7629 162.627)
(-1.2842e-21 88.3726 149.755)
(-3.10244e-21 78.4582 132.158)
(-6.00522e-21 63.7247 106.835)
(-1.12633e-20 43.9057 75.0782)
(-1.97025e-20 23.6746 42.7782)
(-2.57592e-20 2.61877 12.5565)
(2.62792e-20 -8.45979 -14.7007)
(-2.90148e-20 -32.2346 -38.5784)
(-2.13576e-19 -31.5047 -69.1385)
(-1.37846e-24 143.727 279.244)
(-7.18105e-24 160.385 255.517)
(-1.35461e-23 130.469 251.134)
(-2.70561e-23 136.968 230.463)
(-3.45889e-23 118.506 223.288)
(7.98597e-24 117.229 208.38)
(1.41793e-22 106.267 199.344)
(3.56323e-22 101.651 188.118)
(5.27531e-22 94.2243 179.147)
(4.13816e-22 88.6666 169.513)
(-2.09794e-22 81.5758 159.215)
(-1.30585e-21 72.8747 145.079)
(-2.86526e-21 59.6544 123.677)
(-6.77901e-21 41.2109 92.7591)
(-1.78165e-20 21.4129 58.8904)
(-4.11925e-20 6.85365 33.1386)
(-8.02141e-20 -5.77801 9.33807)
(-1.1812e-19 -22.3859 -21.1267)
(-1.33082e-19 -32.3456 -37.9467)
(-1.27907e-19 -19.8473 -25.455)
(7.44e-25 131.646 269.061)
(2.96645e-24 155.055 243.682)
(1.80331e-24 119.412 241.526)
(-7.48377e-24 126.282 221.561)
(-2.27213e-23 108 214.267)
(-1.62328e-23 104.865 200.566)
(5.66001e-23 94.6339 191.119)
(2.02168e-22 88.7683 180.371)
(3.39426e-22 81.5007 171.025)
(3.0704e-22 75.3141 161.401)
(-2.56194e-23 68.4521 151.21)
(-5.84557e-22 60.6798 138.578)
(-1.3195e-21 51.0318 121.813)
(-3.59181e-21 40.0345 100.563)
(-1.21046e-20 29.6929 77.4453)
(-3.41656e-20 21.5282 56.0084)
(-7.45995e-20 14.4325 36.2171)
(-1.29368e-19 6.98075 14.1871)
(-1.93557e-19 -3.06817 -11.3455)
(-2.01436e-19 6.40384 16.7668)
(-1.58193e-25 107.88 253.167)
(-8.77316e-25 147.755 223.592)
(-2.11276e-24 107.126 226.514)
(-5.54598e-24 113.335 211.058)
(-9.30468e-24 97.1986 205.221)
(-2.68139e-24 92.4116 195.401)
(3.45174e-23 83.3748 187.747)
(1.18595e-22 77.0434 179.503)
(2.44103e-22 70.3271 171.858)
(3.74378e-22 64.5087 164.246)
(4.28039e-22 58.97 156.78)
(2.82045e-22 53.9792 149.236)
(-1.0693e-22 49.5144 141.425)
(-4.87635e-22 45.5935 132.76)
(-4.73198e-22 41.9415 122.306)
(-5.32893e-22 37.9365 108.989)
(-3.29477e-21 32.1761 91.3188)
(-1.3512e-20 23.3679 65.8304)
(-3.30729e-20 10.8698 28.2805)
(-4.4304e-20 -3.1406 -12.4328)
(1.36492e-25 35.8181 158.073)
(3.28571e-25 78.5376 130.522)
(1.70501e-25 52.8395 138.567)
(-8.65999e-25 52.8468 134.38)
(-3.2976e-24 44.4773 134.262)
(-5.82841e-24 40.2454 132.505)
(-2.93637e-24 35.3926 131.118)
(1.50058e-23 31.6684 129.4)
(5.6828e-23 28.4029 127.635)
(1.24458e-22 25.8473 125.779)
(2.14772e-22 23.8953 123.863)
(3.30182e-22 22.5387 121.801)
(4.80804e-22 21.6994 119.468)
(6.68962e-22 21.3568 116.778)
(8.89989e-22 21.7076 113.668)
(1.17902e-21 22.8337 110.241)
(1.61819e-21 24.4198 106.668)
(2.14159e-21 28.5421 100.613)
(2.19994e-21 31.5286 88.4101)
(1.00486e-21 6.99754 65.0839)
(-6.98555e-26 -35.8357 158.106)
(2.96608e-26 -78.5436 130.563)
(1.333e-25 -52.846 138.61)
(1.92464e-26 -52.8475 134.426)
(-7.17515e-25 -44.4764 134.311)
(-1.89418e-24 -40.2427 132.557)
(-1.76878e-24 -35.3905 131.174)
(3.13226e-24 -31.6685 129.461)
(1.80962e-23 -28.4063 127.7)
(5.20027e-23 -25.8527 125.844)
(1.18255e-22 -23.8975 123.917)
(2.26841e-22 -22.5294 121.827)
(3.65881e-22 -21.6718 119.458)
(4.89081e-22 -21.3119 116.735)
(5.36345e-22 -21.6541 113.613)
(5.04558e-22 -22.7822 110.199)
(5.23901e-22 -24.3784 106.666)
(7.66078e-22 -28.5065 100.661)
(1.04418e-21 -31.4678 88.4895)
(6.29855e-22 -6.98761 65.0559)
(3.51401e-25 -107.886 253.221)
(2.58165e-25 -147.823 223.616)
(3.77436e-25 -107.165 226.532)
(-2.43141e-26 -113.415 211.046)
(-1.87571e-24 -97.2815 205.193)
(-2.66844e-24 -92.5218 195.346)
(5.97231e-24 -83.5046 187.668)
(3.44933e-23 -77.2004 179.398)
(8.39277e-23 -70.5124 171.726)
(1.35543e-22 -64.7294 164.09)
(1.59111e-22 -59.2414 156.618)
(1.41501e-22 -54.3259 149.104)
(9.19684e-23 -49.9525 141.348)
(2.39428e-23 -46.1076 132.744)
(1.81813e-23 -42.4861 122.353)
(1.43688e-22 -38.4577 109.115)
(-5.58158e-22 -32.604 91.5143)
(-5.56377e-21 -23.6068 66.0202)
(-1.82185e-20 -10.8736 28.1041)
(-2.96638e-20 3.47751 -13.8307)
(-1.61369e-24 -131.552 268.909)
(-3.75809e-25 -155.017 243.43)
(1.31369e-24 -119.312 241.28)
(1.79865e-24 -126.245 221.235)
(9.03971e-25 -107.923 213.919)
(5.19268e-24 -104.813 200.158)
(2.83198e-23 -94.5651 190.673)
(7.9287e-23 -88.7036 179.872)
(1.47212e-22 -81.4209 170.476)
(1.85306e-22 -75.2204 160.786)
(4.62229e-23 -68.3349 150.523)
(-6.28234e-22 -60.5666 137.839)
(-2.24588e-21 -51.0428 121.184)
(-4.64499e-21 -40.4212 100.406)
(-7.40518e-21 -30.6611 78.162)
(-1.26447e-20 -23.0717 57.7232)
(-2.61043e-20 -16.4855 38.7764)
(-4.46162e-20 -9.38784 17.4421)
(-2.18365e-20 1.62425 -9.99547)
(-5.3108e-20 -7.60802 17.1234)
(6.83623e-24 -143.515 278.787)
(3.30532e-24 -160.088 255.152)
(-9.0116e-25 -130.203 250.7)
(-6.14982e-24 -136.614 230.063)
(-1.46174e-23 -118.17 222.871)
(-1.88981e-23 -116.808 207.986)
(-1.63224e-24 -105.837 198.939)
(4.63841e-23 -101.134 187.735)
(1.0646e-22 -93.6588 178.755)