/*--------------------------------*- C++ -*----------------------------------*\
| =========                 |                                                 |
| \\      /  F ield         | OpenFOAM: The Open Source CFD Toolbox           |
|  \\    /   O peration     | Version:  4.1                                   |
|   \\  /    A nd           | Web:      www.OpenFOAM.org                      |
|    \\/     M anipulation  |                                                 |
\*---------------------------------------------------------------------------*/
FoamFile
{
    version     2.0;
    format      ascii;
    class       volScalarField;
    location    "24";
    object      p;
}
// * * * * * * * * * * * * * * * * * * * * * * * * * * * * * * * * * * * * * //

dimensions      [0 2 -2 0 0 0 0];

internalField   nonuniform List<scalar> 
1280
(
-106.489
-64.5527
-116.259
-225.704
-130.425
-227.694
-334.24
-359.315
-314.58
-394.557
-591.623
-471.802
-607.91
-908.233
-741.622
-991.007
-1428.06
-1499.91
-1152.49
-3354.06
-1074.35
1094.73
2184.74
2617.05
2716.22
3490.74
59.197
-81.3959
173.794
-337.891
-613.105
-909.339
-1271.86
-1649.86
-2044.53
-2436.66
-2812.82
-3102.37
-3394.6
-3668.76
263.618
-1193.16
-1066.94
-636.639
1040.51
446.808
507.173
505.193
578.65
541.164
503.102
367.281
493.501
426.702
272.823
821.977
-560.343
-883.534
-1388.06
-2057.67
-2326.54
-1570.82
-1289.32
-927.568
-648.626
-384.195
-150.047
62.7966
254.768
402.645
566.615
943.572
569.102
1394.24
3255.98
2743.04
2789.02
2270.92
1225.84
-287.092
-1412.84
-153.813
-16.6126
193.424
322.587
550.116
594.831
613.904
644.75
658.87
624.193
599.054
562.158
467.678
434.879
412.355
283.078
99.3364
22.7335
132.719
-21.0305
77.181
214.684
478.376
27.0554
35.7543
-98.3256
-112.864
-431.839
-243.4
-161.076
-123.295
23.737
67.007
110.686
98.3168
73.0169
58.7729
100.103
6.83924
234.902
511.348
1131.59
350.714
239.561
-254.933
-340.807
-715.91
-320.252
-102.075
4.76855
324.049
407.597
424.086
317.148
207.744
180.96
240.792
35.0552
303.685
616.749
1371.71
591.432
306.177
-263.443
-538.148
-756.616
-328.912
-118.092
11.3092
456.673
563.451
599.713
462.536
317.526
260.106
368.549
52.5321
370.167
740.578
1508.71
847.38
416.421
-247.371
-771.094
-865.098
-420.931
-79.6863
60.2396
584.084
736.264
792.251
621.777
437.083
362.856
499.241
65.9394
423.213
847.467
1518.86
1007.25
478.597
-188.636
-871.702
-848.891
-367.869
-189.223
-2.35137
713.892
900.947
970.661
768.02
517.218
386.146
555.989
73.7484
451.297
913.304
1454.07
1125.66
527.88
-119.513
-884.974
-826.412
-548.93
-622.874
181.238
791.256
1019.51
1114.5
895.436
626.788
544.489
674.995
75.126
454.901
916.554
1352.44
1146.96
512.091
-59.8703
-770.591
-797.905
-634
-569.016
402.211
862.966
1098.75
1219.25
986.48
582.905
413.77
397.869
69.9985
434.012
850.781
1217.66
1055.66
410.892
-77.5709
-596.534
-653.196
-428.282
-342.832
444.629
854.04
1107.18
1284.48
1195.94
907.917
888.586
990.238
58.886
390.929
730.033
1024.18
839.881
217.429
-182.871
-446.762
-458.594
-315.794
-230.444
435.614
787.454
1017.17
1168.1
1147.91
964.338
1456.14
4577.38
43.0726
330.599
588.049
797.838
522.592
-76.0918
-367.55
-347.252
-154.468
34.7581
92.0421
469.728
698.472
845.401
866.733
841.594
878.589
1342.78
3270.82
24.9793
256.222
438.607
546.839
107.088
-445.783
-573.26
-256.159
73.0465
319.654
389.988
537.985
624.106
728.421
676.649
549.739
635.732
1328.16
3706.55
5.99392
170.417
293.888
306.039
-328.237
-728.12
-693.156
-111.269
245.774
462.121
521.674
540.234
536.726
614.888
512.029
256.712
343.821
1125.14
4022.88
-7.59867
80.8576
166.567
107.348
-693.685
-780.614
-690.984
3.49568
312.542
467.56
528.293
519.621
455.151
459.634
315.508
-183.53
-272.777
105.034
384.281
-14.8706
-8.18069
60.6221
-34.6369
-938.341
-732.866
-610.486
46.3038
314.925
428.2
453.957
470.555
407.86
326.72
61.9506
-613.761
-739.845
-605.378
-261.341
-4.09097
-79.1501
-9.65402
-104.524
-1031.41
-768.836
-503.363
55.9419
305.734
380.697
378.965
374.704
283.704
150.441
-122.28
-622.102
-619.468
-400.897
-89.957
6.18027
-143.024
-60.496
-117.231
-907.869
-831.631
-397.658
51.9877
288.259
315.49
305.929
274.802
199.42
66.2283
-178.404
-542.072
-599.972
-428.771
-166.273
40.9099
-157.353
-47.8852
-54.4988
-573.176
-803.317
-279.349
36.5618
245.602
242.422
230.232
202.97
149.296
40.8371
-154.665
-383.147
-407.393
-302.349
-109.475
41.709
-173.51
-63.0753
-64.2805
-201.777
-670.289
-168.853
24.2772
188.822
183.331
158.699
142.022
97.7144
23.907
-106.071
-223.252
-270.644
-231.077
-113.562
97.2975
-13.9111
79.0777
31.0976
36.5682
-528.06
-105.617
17.5437
146.097
150.76
103.668
92.0445
60.3439
14.7129
-57.7859
-115.271
-164.051
-151.246
-81.0217
15.589
-68.518
-102.484
-213.272
-24.2673
-268.841
-23.1991
-8.0186
45.5424
68.2102
23.5037
24.2011
15.3086
1.3049
-19.3594
-37.0501
-54.8593
-59.4931
-14.3918
1633.11
1460.56
1378.82
1087.59
789.009
434.821
18.4617
-399.987
-772.825
-1085.7
-1337.56
-1521.9
-1646.45
-1715.7
-1741.03
-1738.15
-1754.42
-1786.73
-1872.16
-1877.18
1823.51
1382.88
1138.04
728.843
378.969
-38.035
-443.462
-856.133
-1238.71
-1587.58
-1881.4
-2111.02
-2262.25
-2327.61
-2307.33
-2227.18
-2129.38
-2018.72
-1936.23
-2094.1
7772.1
7683.48
7660.02
7628.09
7571.92
7496.38
7376.96
7218.88
7003.12
6716.52
6334.99
5835.76
5217.17
4524.56
3860.38
3335.14
2991.83
2814.65
2824.72
2517.12
4461.68
4620.17
4682.7
4816.42
4905.64
5021.94
5122.46
5227.2
5325.07
5418.89
5501.76
5560.2
5575.97
5527.75
5407.2
5225.96
5068.14
4947.34
4938.46
4849.64
4387.98
4531.81
4567.53
4674.25
4730.06
4801.65
4857.06
4907.26
4947.97
4977.77
5001.23
5024.31
5059.49
5117.18
5204.96
5313.05
5426.51
5529.7
5599.41
5660.56
2212.09
2421.3
2486.08
2622.04
2719.7
2827.22
2932.39
3032.52
3134.55
3232.52
3329.67
3424.96
3518.86
3615.26
3714.48
3826.93
3939.82
4073.94
4170.01
4310.84
777.638
1001.58
1094.87
1231.59
1354.54
1474.3
1606.62
1723.41
1847.33
1962.25
2075.57
2185.05
2290.3
2395.32
2495.87
2602.95
2700.03
2817.3
2896.49
3019.38
-1813.91
-1629.1
-1479.29
-1365.73
-1207.73
-1079.35
-897.6
-745.429
-559.319
-380.953
-190.21
2.61954
195.932
390.691
578.113
770.983
945.989
1153.33
1308.51
1578.68
-4043.4
-4221.11
-4184.44
-4321.17
-4361.15
-4495.77
-4550.14
-4676.48
-4741.28
-4814
-4824.28
-4789.07
-4693.65
-4543.42
-4348.45
-4109.36
-3868.23
-3597.77
-3403.69
-3027.08
-1573.04
-2020.48
-2122.79
-2450.62
-2649.47
-2980.46
-3240.41
-3597.96
-3923.84
-4293.06
-4627.48
-4949.86
-5224.5
-5447.57
-5594.1
-5661.8
-5643.72
-5561.31
-5549.8
-5413.07
2865.49
2512.62
2435.94
2162.2
2050.38
1795.99
1656.06
1430.67
1274.66
1089.15
950.042
810.955
697.914
589.498
496.473
407.31
327.192
324.165
296.545
-55.8109
5196.17
5179.99
5238.39
5173.96
5270.9
5187.93
5241.05
5143.98
5100.57
4955.82
4799.8
4575.13
4316.73
4021.78
3729.54
3478.94
3296.23
3184.89
3181.82
2982.37
3368.42
3499.94
3639.45
3655.67
3860.39
3881.96
4070.52
4147.42
4306.65
4415.06
4532.57
4605.83
4638.93
4604.35
4510.42
4377.74
4287.52
4265.43
4306.18
4308.37
2275.6
2368.67
2553.03
2504.3
2741.46
2709.78
2891.16
2925.11
3046.16
3120.82
3215
3303.85
3397.45
3495.94
3594.32
3694.35
3786.11
3893.15
3970.8
4074.62
74.2101
116.025
372.434
292.057
595.855
553.383
788.239
839.218
1005.93
1117.57
1258.2
1393.42
1533.63
1680.69
1829.59
1992.31
2148.29
2328.74
2457.73
2663.28
-1647.57
-1829.06
-1635.58
-1878.92
-1662.2
-1841.72
-1708.67
-1777.4
-1711.21
-1708.79
-1664.49
-1628.46
-1581.72
-1524.92
-1459.98
-1358.96
-1241.35
-1058.78
-892.364
-627.509
57.1946
-346.981
-265.789
-805.278
-816.823
-1242.02
-1397.45
-1710.86
-1924.03
-2177.01
-2391.06
-2601.31
-2785.31
-2939.38
-3048.73
-3087.36
-3084.61
-3052.98
-3048.11
-2933.8
2448.88
1922.74
2432.43
1778.48
1896.86
1481.89
1311.92
980.133
698.478
373.432
53.6298
-276.656
-600.504
-905.993
-1165.77
-1342.07
-1420.18
-1485.86
-1563.63
-1604.35
2204.61
541.282
1312.08
371.994
327.592
-180.645
-455.303
-806.983
-1076.96
-1322.79
-1507.03
-1634.61
-1691.83
-1673.34
-1562.09
-1337.24
-1035.9
-695.106
-336.193
-168.024
54178.5
47717.7
44284.9
39982.7
36392
32839.6
29568.6
26457.7
23530.8
20756.4
18124.8
15620.5
13231.9
10948.6
8782.24
6710.78
4654.98
2895.59
1173.12
-1764.22
47744.2
41283.6
37850.5
33548.2
29957.2
26404.5
23133.3
20022.3
17095.4
14321.1
11689.6
9185.72
6797.63
4514.9
2348.78
276.967
-1780.34
-3543.82
-5269.35
-8205.06
-4198.94
-5862.39
-5092.28
-6031.78
-6075.51
-6582.47
-6855.69
-7205.71
-7473.99
-7718.18
-7900.92
-8027.19
-8083.24
-8063.6
-7950.28
-7722.87
-7421.12
-7079.09
-6717.61
-6548.62
-3972.71
-4497.69
-3986.91
-4639.11
-4518.12
-4929.93
-5095.48
-5422.03
-5696.99
-6014.19
-6324.55
-6643.08
-6952.69
-7241.59
-7483.14
-7640
-7705.27
-7770.45
-7862.73
-7919.75
-6409.85
-6816.92
-6737.26
-7280.32
-7295.35
-7724.77
-7885.43
-8204.21
-8424.23
-8685.25
-8910.12
-9134.09
-9334.9
-9509.36
-9641.75
-9704.96
-9725.32
-9708.95
-9718.21
-9615.05
-8219.54
-8410.41
-8224.1
-8474.21
-8268.08
-8455.9
-8333.46
-8412.94
-8356.96
-8366.36
-8332.68
-8307.86
-8270.83
-8221.93
-8161.29
-8058.96
-7931.39
-7735.25
-7580.79
-7330.23
-6605.93
-6571.32
-6316.65
-6401.97
-6103.24
-6150.74
-5921.69
-5873.1
-5709.68
-5597.74
-5456.22
-5318.57
-5175.1
-5023.95
-4870.55
-4702.9
-4543.23
-4360.23
-4231.04
-4019.93
-4265.75
-4147.45
-3979.51
-4076.91
-3846.96
-3904.46
-3718.82
-3692.87
-3558.39
-3484.82
-3391.48
-3311.4
-3225.57
-3130.58
-3033.7
-2934.96
-2845.03
-2739.4
-2661.73
-2559.23
-2959.67
-2929.09
-2782.92
-2941.79
-2839.47
-2893.57
-2806.69
-2763.73
-2648.91
-2540.47
-2416.21
-2322.6
-2247.37
-2225.13
-2260.22
-2319.13
-2339.23
-2307.45
-2259.36
-2232.93
-2072.63
-2098.41
-2100.38
-2166.68
-2159.14
-2169.84
-2148.7
-2139.19
-2119.62
-2113.44
-2135.2
-2198.13
-2286.88
-2405.22
-2521.36
-2608.04
-2652.36
-2669.66
-2638.27
-2700.44
-2695.82
-2866.64
-2905.47
-2933.3
-2929.74
-2929.78
-2943.87
-2980.87
-3064.6
-3199.7
-3332.85
-3417.28
-3469.71
-3513.89
-3562.24
-3623.84
-3672.73
-3658.75
-3649.78
-3852.16
-5268.95
-5458.73
-5472.4
-5522.73
-5569.03
-5644.74
-5756.86
-5910.23
-6114.67
-6355.43
-6582.38
-6794.41
-7027.51
-7267.56
-7470.68
-7590.45
-7606.15
-7584.13
-7599.26
-7530.42
-6584.92
-6562.99
-6532.87
-6548.76
-6588.76
-6648.81
-6729.02
-6813.25
-6913.71
-7029.59
-7121.27
-7175.85
-7194.38
-7151.76
-7043.67
-6873.2
-6689.26
-6470.92
-6326.8
-6066.87
-4862.84
-4679.45
-4599.77
-4513.75
-4444.64
-4365.9
-4275.89
-4163.58
-4071.48
-4001.49
-3868.86
-3702.13
-3546.89
-3387.26
-3234.15
-3078.77
-2949.33
-2793.85
-2696.52
-2488.17
-3266.08
-3079.62
-3012.88
-2918.6
-2841.37
-2754.38
-2662.07
-2557.51
-2439.66
-2326.09
-2216.82
-2110.29
-2016.41
-1924.44
-1837.37
-1742.88
-1656.16
-1551.55
-1482.08
-1383.69
-1557.96
-1421.84
-1387.66
-1311.44
-1251.16
-1187.65
-1133.22
-1085.15
-1045.57
-1022.4
-1014.61
-1011.08
-995.663
-946.396
-865.531
-768.595
-681.266
-593.9
-538.575
-467.681
-914.288
-790.582
-755.297
-673.011
-614.326
-548.792
-478.75
-393.981
-305.293
-215.59
-120.156
-20.956
60.5324
79.7795
0.448539
-162.056
-293.528
-366.5
-355.022
-402.404
1337.86
1254.57
1197.81
1147.52
1095.17
1015.1
887.009
719.22
513.879
261.441
-47.0233
-425.813
-881.912
-1385.85
-1853.72
-2198.89
-2405.38
-2502.74
-2482.9
-2792.25
-3084
-3672.78
-3954.45
-4418.68
-4814.9
-5245.56
-5635.49
-6017.43
-6366.74
-6675.45
-6922.52
-7097.56
-7190.96
-7200.19
-7135.81
-7021.14
-6892.25
-6800.21
-6870.97
-7196.87
-8526.57
-8826.89
-8886.69
-9143.3
-9321.89
-9538.81
-9730.28
-9932.19
-10132.6
-10317.6
-10481.4
-10626.9
-10760.2
-10888.1
-11021.3
-11143.3
-11237
-11285.5
-11328.1
-11138.5
-5301.54
-5051.93
-5054.45
-5208.95
-5445.27
-5717.36
-6092.82
-6445.34
-6745.38
-7017.16
-7260.34
-7462.6
-7620.74
-7719.51
-7753.16
-7667.95
-7471.72
-7127.81
-6803.33
-6447.02
)
;

boundaryField
{
    outletWall
    {
        type            fixedValue;
        value           uniform 0;
    }
    fineWalls
    {
        type            zeroGradient;
    }
    fineFrontAndBack
    {
        type            zeroGradient;
    }
    fineplugLeft
    {
        type            cyclicAMI;
        value           nonuniform List<scalar> 
20
(
-2235.5
-2176.65
-2049.85
-1966.1
-1877.85
-1801.73
-1702.54
-1571.53
-1399.39
-1192.67
-936.135
-583.502
-336.269
23.0936
1046
1174.45
1393.48
1540
1387.4
1091.62
)
;
    }
    fineplugRight
    {
        type            cyclicAMI;
        value           nonuniform List<scalar> 
20
(
-5622.93
-5756.83
-5960.11
-6162.89
-6264.09
-6279.36
-6205.62
-6084.03
-5919.13
-5727.74
-5500.4
-5207.59
-5042.45
-5241.48
-3922.69
-3807.61
-3609.36
-3589.38
-3796.37
-4298.65
)
;
    }
    inletOutletLeft
    {
        type            cyclicAMI;
        value           nonuniform List<scalar> 
20
(
-2235.5
-2176.65
-2049.85
-1966.1
-1877.85
-1801.73
-1702.54
-1571.53
-1399.39
-1192.67
-936.135
-583.502
-336.269
23.0936
1046
1174.45
1393.48
1540
1387.4
1091.62
)
;
    }
    inletLeft
    {
        type            zeroGradient;
    }
    inletWallsLeft
    {
        type            zeroGradient;
    }
    inletFacesLeft
    {
        type            zeroGradient;
    }
    inletOutletRight
    {
        type            cyclicAMI;
        value           nonuniform List<scalar> 
20
(
-5622.93
-5756.83
-5960.11
-6162.89
-6264.09
-6279.36
-6205.62
-6084.03
-5919.13
-5727.74
-5500.4
-5207.59
-5042.45
-5241.48
-3922.69
-3807.61
-3609.36
-3589.38
-3796.37
-4298.65
)
;
    }
    inletRight
    {
        type            zeroGradient;
    }
    inletWallsRight
    {
        type            zeroGradient;
    }
    inletFacesRight
    {
        type            zeroGradient;
    }
}


// ************************************************************************* //
