/*--------------------------------*- C++ -*----------------------------------*\
| =========                 |                                                 |
| \\      /  F ield         | OpenFOAM: The Open Source CFD Toolbox           |
|  \\    /   O peration     | Version:  4.1                                   |
|   \\  /    A nd           | Web:      www.OpenFOAM.org                      |
|    \\/     M anipulation  |                                                 |
\*---------------------------------------------------------------------------*/
FoamFile
{
    version     2.0;
    format      ascii;
    class       surfaceScalarField;
    location    "24";
    object      phi;
}
// * * * * * * * * * * * * * * * * * * * * * * * * * * * * * * * * * * * * * //

dimensions      [0 3 -1 0 0 0 0];

internalField   nonuniform List<scalar> 
2360
(
41783.9
47774.9
-5991.07
47774.9
47774.9
55233
-7458.09
55233
55233
55233
65610.9
-10377.9
65610.9
65610.9
80172
-14561.1
80172
80172
101429
-21257.3
101429
101429
131740
-30311.1
131740
131740
143276
159518
176045
191856
206858
220957
199389
35097.2
211737
223026
233241
242384
250443
257419
263310
268131
271927
274781
276748
277948
278643
150140
128503
150140
150140
150140
45192.7
104948
45192.7
45192.7
45192.7
11487.5
33705.3
11487.5
11487.5
-12641
24128.4
-12641
-12641
-12641
-111979
99337.8
-111979
-111979
-111979
-253492
141513
-251380
-247679
-243252
-238188
-232541
-226320
-219538
-212183
-204222
-195594
-186220
-176009
-164871
-180355
27709.1
-167395
-153341
-138368
-122863
-108191
-99201.1
-99201.1
-99201.1
-50048.5
-49152.7
-50048.5
-50048.5
-13552.8
-36495.6
-13552.8
-13552.8
16734.3
-30287.1
16734.3
16734.3
43056.4
-26322.1
43056.4
43056.4
43056.4
67125.2
-24068.8
67125.2
67125.2
92858
-25732.8
-31908.1
96392.9
-30566.8
118426
-27633.8
108259
-14526.9
53779.6
-1440.07
-83404
-163.784
-117458
-6941.83
-96382.3
-4591.88
-7241.39
-1045.27
74945.5
2547.06
101012
6518.12
115184
10857.4
135396
16664
123559
22978.7
108813
28155.6
85601.4
31307.4
61002.8
32190
36866.5
31700.5
11943.2
-25579.3
-33189.3
96540.5
-32324.7
117561
-28643.3
104577
-11467.8
36604.1
-5426.42
-89445.4
-13902.1
-108982
-23117
-87167.4
-13380.7
-16977.7
-4394.26
65959.1
437.813
96180.2
4820.61
110801
8990.39
131226
15243.7
117306
22305.6
101751
28536.2
79370.8
32451.4
57087.6
33734.2
35583.7
30824.5
14852.8
-18823.5
-34797.6
96912.7
-34445.6
117209
-30320
100452
-15313.6
21597.7
-17401
-87358
-29557.9
-96825.3
-35912.3
-80813
-24388.5
-28501.5
-10155.6
51726.2
-2185.21
88209.8
1818.27
106798
5540.93
127503
12457.8
110389
20788
93421.2
28618.9
71539.9
34001.4
51705
35991.9
33593.2
32530.3
18314.5
-12615.4
-36661.8
97532.7
-36888.6
117436
-33423.9
96987.2
-24457.9
12631.6
-33770.5
-78045.4
-47114.4
-83481.4
-51584
-76343.4
-39063.1
-41022.4
-18667.3
31330.4
-3855.07
73397.6
192.111
102751
885.791
126810
8232.77
103042
17942.2
83711.7
27679.8
61802.4
35010.5
44374.4
37800.3
30803.4
34998
21116.8
-7904.55
-38568.7
98383.7
-39448.8
118316
-38120.5
95658.9
-38005
12516.1
-53232.9
-62817.5
-67049.3
-69664.9
-70915.7
-72477
-60209
-51729.1
-39433.3
10554.7
-24403.9
58368.2
-13506.5
91853.4
-5796.17
119099
1719.49
95526.3
13370.4
72060.8
24912.8
50259.9
34944.7
34342.5
39279.5
26468.6
38374.6
22021.7
-6025.59
-40215.3
99499.3
-41993.1
120094
-44497.3
98163.2
-54073.8
22092.5
-73594.8
-43296.4
-88567.2
-54692.6
-93666.3
-67377.9
-84011.5
-61384
-62536.3
-10920.5
-47400
43231.9
-33549.9
78003.3
-18278.9
103828
-7312.71
84560.2
5300.82
59447.3
17574.6
37986.2
30302.1
21615
36261.9
20508.8
41568.2
16715.4
-13610.1
-41339.3
101038
-44299.5
123054
-51042.2
104906
-68893.7
39944
-92270.4
-19919.7
-109851
-37112.3
-119407
-57821.3
-113714
-67076.8
-89210.2
-35424.7
-66540.5
20562.2
-50172.3
61635.1
-31840.6
85496.7
-19059.8
71779.3
-8357.36
48744.8
1052.57
28576.2
11203.2
11464.4
25226.1
6485.86
29911.5
12030
44010.5
-41735.8
103222
-46054.7
127373
-55975.6
114827
-79171.8
63140.1
-105710
6618.88
-125690
-17132.6
-140002
-43508.9
-142287
-64792.7
-121718
-55993.1
-89847.4
-11308.5
-66518.7
38306.4
-47536.9
66514.8
-35122.1
59364.5
-30312.3
43935
-33551.4
31815.3
-46533.2
24446.2
-67356.9
27309.6
-100971
45644.4
84552.7
-41323.5
106201
-46950.6
133000
-58055.7
125932
-82499.3
87583.7
-111233
35353
-132761
4395.28
-147993
-28277
-156504
-56281.7
-149449
-63048.7
-122913
-37843.7
-93331.6
8724.6
-72132.8
45316.1
-62946.7
50178.4
-66149.5
47137.9
-80144.3
45810.1
-100824
45125.8
-119244
45729.9
-123767
50167.3
60123.3
-40285.7
109912
-46982.8
139697
-57964.8
136914
-81299.8
110919
-110643
64696.7
-130778
24530
-140129
-18926.4
-146175
-50235.6
-149822
-59401.5
-144005
-43661.3
-127326
-7954.24
-109601
27591.5
-101185
41761.8
-102084
48037
-109177
52903.8
-116734
52682.3
-113212
42208
-85001.3
21956.7
-749.525
-39212.5
113965
-46395.1
146879
-56433.2
146952
-76823
131308
-102700
90573.5
-114421
36251.7
-110736
-22611.8
-108275
-52697
-115518
-52158.3
-126151
-33028.3
-129860
-4244.76
-124669
22400.7
-119228
36320.9
-117290
46098.8
-118482
54095.1
-119129
53329.6
-109357
32436.3
-82256.9
-5143.72
-49301.2
-39120.8
117610
-45733.7
153492
-54204.6
155423
-70510
147614
-89459.6
109523
-86689.9
33482.1
-68896.1
-40405.6
-62352.3
-59240.9
-73081.3
-41429.3
-91025.9
-15083.7
-105010
9739.46
-110329
27720
-113560
39551.4
-118650
51188.9
-125411
60855.7
-133014
60933.2
-136170
35591.8
-130343
-10970.1
-74696.9
-41232.4
119858
-45877.1
158137
-52155.4
161701
-63868.2
159326
-74649
120304
-58746
17579.1
-35396.3
-63755.4
-32194.8
-62442.3
-45848.2
-27775.9
-63127.7
2195.76
-76273.3
22885
-84344.4
35791.2
-91452.8
46659.8
-100110
59846.3
-108611
69356.2
-110894
63216.1
-105206
29903.9
-108476
-7700.16
-54669.6
-46295.8
119946
-47779.9
159621
-51186.7
165108
-58025.5
166165
-60726.3
123005
-38327.8
-4819.38
-20911.9
-81171.2
-22661.4
-60692.8
-31869.7
-18567.6
-43090.7
13416.8
-51159.4
30953.7
-57884.2
42516
-64554.6
53330.2
-70138.9
65430.6
-71093.6
70310.8
-55875.7
47998.3
-23528.3
-2443.52
2466.99
-33695.4
-17105.4
-53668.5
117440
-51387.8
157340
-51589.6
165310
-53494.3
168070
-47964.7
117475
-24800.6
-27983.5
-18291.8
-87680
-23252.4
-55732.2
-24104.2
-17715.8
-30028.5
19341
-34886.6
35811.8
-38619.4
46248.7
-41264.7
55975.5
-40365.3
64531.3
-34283.2
64228.7
-18687
32402.1
-2383.69
-18746.9
13540.6
-49619.7
-33875.9
-63269.3
112175
-57181.7
151253
-54491.2
162620
-51453.1
165032
-37182.1
103204
-17144.7
-48020.9
-18147
-86677.7
-21997.9
-51881.3
-17326.7
-22387.1
-19925.6
21940
-23584.6
39470.8
-25452.7
48116.8
-24420.7
54943.6
-19173.3
59283.8
-10177.6
55233
1327.92
20896.5
8780.05
-26199
14290.7
-55130.4
-40842.4
-79676
104001
-69313.4
140890
-62754
156060
-52453.5
154731
-27664.5
78415
-12787.8
-62897.6
-17929.1
-81536.4
-17960.1
-51850.3
-11688.1
-28659.1
-11620.7
21872.6
-13893.4
41743.5
-14780.8
49004.2
-12604.2
52766.9
-6278.99
52958.6
2697.07
46257
11593.2
12000.4
14758.9
-29364.6
13330
-53701.5
-42073.5
-100554
94181.3
-86115.5
126452
-73395.2
143340
-53034.2
134370
-19588.4
44969.2
-9933.95
-72552
-16703
-74767.3
-14187.6
-54365.7
-7445.23
-35401.4
-4792.61
19220
-5956.02
42906.9
-5958.84
49007
-3898.89
50707
1509.69
47550
9366.42
38400.3
15854.8
5511.97
15504.6
-29014.4
11540.4
-49737.3
-40911
-112323
84470.2
-95973.8
110102
-77044.2
124410
-46695.4
104022
-13246.6
11520.4
-9286.1
-76512.5
-14002.3
-70051.1
-11416.7
-56951.3
-4633.13
-42185
572.997
14013.9
800.203
42679.7
1625.02
48182.2
3580.53
48751.5
7153.81
43976.8
12616.8
32937.2
16106.4
2022.46
13678.4
-26586.4
10181.6
-46240.6
-38187.5
-90920.5
-78392.5
-61075.2
-32869.4
-9237.25
-8892.44
-11377.9
-9540.62
-4420.03
2277.68
5418.69
7403.06
9260.15
11178.3
13362.3
14506.6
12437
10316.5
3237.55
-14773.7
5473.31
-18477.7
6923.8
-17977.3
8044.35
-16931.9
8989.79
-15946.9
9782.26
-14891.6
9997.57
-13744.5
10146.3
-12496.8
10024.2
-11166.7
9611.75
-9802.88
8899.56
-8430.26
7894.41
-7054.19
6584.51
-5665.63
4939.29
-4245.85
2994.49
-2876.92
998.506
-1800
-541.024
-1314.5
-1026.29
-1481.6
-355.156
-1870.63
-1050.91
160.81
-14934.5
-1448.43
-16868.4
-3276.04
-16149.7
-4988.21
-15219.8
-6673.42
-14261.7
-8267.47
-13297.6
-9794.99
-12217
-11291.4
-11000.4
-12775.9
-9682.22
-14284.5
-8294.37
-15819.9
-6894.85
-17324
-5550.04
-18677.4
-4312.22
-19668.1
-3255.2
-19914.9
-2630.15
-18853.7
-2861.15
-15978.5
-4189.71
-11229
-6231.13
-5378.15
-7721.49
-6429.06
-2359.15
-12575.3
-3917.83
-15309.8
-5151.43
-14916.1
-6392.36
-13978.8
-7882.67
-12771.4
-9532.41
-11647.8
-11163.2
-10586.2
-12658.3
-9505.3
-13983.6
-8356.88
-15110
-7168.03
-15999.7
-6005.19
-16576.2
-4973.52
-16663.1
-4225.25
-15964.8
-3953.53
-14195.2
-4399.77
-11331
-5725.33
-7794.22
-7726.54
-4327.69
-9697.67
-1719.7
-10329.5
-8148.76
-774.801
-11800.5
-544.337
-15540.2
-276.157
-15184.3
-72.448
-14182.5
33.2908
-12877.2
28.2028
-11642.8
49.9942
-10608
248.856
-9704.17
724.883
-8832.91
1518.88
-7962.03
2608.78
-7095.1
3904.71
-6269.46
5268.6
-5589.15
6522.8
-5207.73
7400.51
-5277.49
7537.54
-5862.36
6617.24
-6806.24
4651.06
-7731.49
2145.7
-7824.14
-6003.06
10.8113
-11811.4
729.51
-16258.9
1444.71
-15899.5
2069.89
-14807.7
2699.62
-13506.9
3330.89
-12274
3995.34
-11272.5
4727.48
-10436.3
5578.79
-9684.24
6579.19
-8962.45
7737.55
-8253.47
9010.69
-7542.62
10249
-6827.46
11180.7
-6139.44
11461.3
-5558.14
10788.8
-5189.87
9064.14
-5081.54
6403.59
-5070.94
3316.23
-4736.78
-2686.83
577.161
-12388.5
1507.64
-17189.4
2176.94
-16568.8
2645.8
-15276.6
3092.06
-13953.2
3577.42
-12759.4
4105.2
-11800.3
4611.6
-10942.7
5069.22
-10141.9
5466.24
-9359.47
5812.92
-8600.16
6132.86
-7862.56
6449.87
-7144.46
6743.69
-6433.27
6912.63
-5727.08
6741.34
-5018.58
5997.61
-4337.8
4519.26
-3592.58
2370.54
-2588.06
-316.288
1194.98
-13583.5
2109.81
-18104.2
2633.86
-17092.8
2996.5
-15639.3
3427.55
-14384.2
3940.61
-13272.5
4528.13
-12387.8
5112.4
-11527
5654.65
-10684.1
6103.21
-9808.03
6419.82
-8916.77
6572.4
-8015.15
6547.88
-7119.94
6347.85
-6233.24
5979.09
-5358.32
5417.72
-4457.21
4594.79
-3514.88
3393.92
-2391.71
1728.52
-922.662
1412.23
1995.34
-15578.9
2728.25
-18837.1
3141.41
-17506
3557.18
-16055
4189.02
-15016.1
4961.09
-14044.5
5859.1
-13285.8
6778.42
-12446.3
7659.24
-11564.9
8397.01
-10545.8
8931.47
-9451.23
9216.78
-8300.45
9229.29
-7132.45
8942.48
-5946.43
8332.34
-4748.17
7375.36
-3500.23
6058.37
-2197.89
4317.75
-651.083
2249.11
1145.98
3661.34
2031.12
-17610
2039.26
-18845.3
2107.02
-17573.8
2385.71
-16333.7
2972.38
-15602.7
3746.75
-14818.9
4711.29
-14250.3
5727
-13462
6671.24
-12509.2
7368.02
-11242.6
7765.04
-9848.25
7845.31
-8380.73
7613.94
-6901.08
7033.65
-5366.15
6060.03
-3774.56
4704.21
-2144.42
3123.83
-617.515
1548.24
924.489
155.481
2538.72
3816.82
380.701
-17990.7
-613.692
-17850.9
-1328.48
-16859
-1866.67
-15795.5
-2237.24
-15232.2
-2499.08
-14557.1
-2655.16
-14094.3
-2793.39
-13323.8
-3031.76
-12270.8
-3466.16
-10808.2
-4090.66
-9223.75
-4859.53
-7611.86
-5736.16
-6024.45
-6692.96
-4409.35
-7657.05
-2810.48
-8442.65
-1358.82
-8681.17
-378.987
-7699.37
-57.3194
-4847.3
-313.348
-1030.48
-1163.95
-16826.7
-2243.55
-16771.3
-3389.35
-15713.2
-4626.82
-14558.1
-5889.52
-13969.5
-7275.13
-13171.5
-8743.49
-12625.9
-10287
-11780.3
-11854.1
-10703.6
-13412
-9250.26
-14948.3
-7687.48
-16439.5
-6120.61
-17805.2
-4658.78
-18810
-3404.53
-19006.4
-2614.09
-17823.4
-2541.81
-14913.8
-3288.67
-10290.2
-4680.87
-4564.88
-6038.68
-5595.36
-934.47
-15892.3
-1303.78
-16402
-1922.99
-15094
-2804.75
-13676.3
-3735.25
-13039
-4926.53
-11980.2
-6258.98
-11293.4
-7685.82
-10353.5
-8937.12
-9452.34
-9844.99
-8342.38
-10324.4
-7208.01
-10375.9
-6069.17
-9986.93
-5047.73
-9113.45
-4278
-7710.92
-4016.61
-5762.64
-4490.08
-3458.18
-5593.12
-1313.78
-6825.26
-98.6057
-7253.85
-5693.96
190.639
-16082.9
561.026
-16772.4
875.236
-15408.2
1054.21
-13855.2
1234.6
-13219.3
1314.3
-12059.9
1323.12
-11302.2
1299.51
-10329.9
1380.46
-9533.29
1732.91
-8694.82
2448.44
-7923.53
3555.34
-7176.07
4989.1
-6481.48
6564.7
-5853.6
7888.57
-5340.47
8416.58
-5018.09
7715.68
-4892.22
5731.05
-4840.62
2919.62
-4442.42
-2774.34
661.008
-16743.9
939.263
-17050.6
1367.58
-15836.5
1808.59
-14296.2
2289.14
-13699.9
2790.53
-12561.3
3318.56
-11830.3
3883.41
-10894.7
4458.48
-10108.4
5059.33
-9295.66
5676.3
-8540.49
6305.86
-7805.62
6914.43
-7090.04
7433.37
-6372.53
7738.14
-5645.23
7608.54
-4888.49
6821.05
-4104.72
5186.51
-3206.08
2806.48
-2062.36
32.136
897.71
-17641.6
911.071
-17063.9
1307.15
-16232.5
1727.77
-14716.9
2214.97
-14187.1
2690.59
-13036.9
3212.61
-12352.3
3751.72
-11433.8
4327.53
-10684.2
4913.52
-9881.64
5499.37
-9126.33
6049.63
-8355.87
6523.53
-7563.93
6848.8
-6697.78
6925.11
-5721.54
6605.49
-4568.85
5799.47
-3298.7
4414.42
-1821.02
2386.39
-34.3128
2418.52
646.909
-18288.5
487.577
-16904.6
756.848
-16501.8
1076.35
-15036.3
1454.48
-14565.2
1884.46
-13466.8
2365.78
-12833.6
2907.57
-11975.6
3517.89
-11294.5
4203.65
-10567.4
4968.51
-9891.18
5777.08
-9164.43
6547.5
-8334.35
7119.09
-7269.36
7232.54
-5834.99
6604.38
-3940.68
5243.76
-1938.07
2929.43
493.332
1388.59
1506.54
3807.12
-188.281
-18100.2
-634.627
-16458.3
-848.684
-16287.7
-945.228
-14939.8
-1018.58
-14491.8
-947.424
-13538
-840.554
-12940.4
-617.142
-12199
-321.839
-11589.8
75.0043
-10964.2
550.151
-10366.3
1075.39
-9689.66
1563.77
-8822.72
1841.92
-7547.51
1609.82
-5602.88
665.364
-2996.21
-571.061
-701.605
20.4061
-98.0948
-552.147
2079.1
3254.97
-1499.11
-16601.1
-3064.29
-14893.1
-4333.76
-15018.3
-5329.86
-13943.7
-6242.78
-13578.9
-6908
-12872.8
-7483.8
-12364.6
-7892.27
-11790.5
-8203.01
-11279
-8396.64
-10770.6
-8493.57
-10269.4
-8479.14
-9704.09
-8328.39
-8973.46
-7960.92
-7914.98
-7218.42
-6345.38
-5928.26
-4286.37
-4336.4
-2293.46
-3577.15
-857.334
-1984.45
486.414
1270.51
-2165.56
-14435.5
-4665.78
-12392.9
-7127.52
-12556.5
-9240.78
-11830.4
-11262.5
-11557.2
-13001.9
-11133.4
-14565.6
-10800.9
-15907.7
-10448.4
-17068.7
-10118
-18048
-9791.3
-18845.3
-9472.07
-19408.1
-9141.28
-19613.2
-8768.37
-19215.1
-8313.05
-17822.1
-7738.43
-15085.6
-7022.87
-11203.1
-6175.98
-6938.07
-5122.33
-2857.81
-3593.84
-1587.3
-5335.52
-8628.36
-12084.9
-14815.3
-17272.5
-19305.8
-21006.8
-22355.2
-23373.2
-24064.5
-24436.6
-24477.8
-24146.2
-23359.3
-21997.7
-19920.6
-16996.5
-13018.9
-7512.7
-5332.48
14432.5
-8621.59
12389.1
-12074.5
12552.9
-14800.8
11826.4
-17253.7
11552.8
-19282.3
11128.6
-20978
10795.7
-22320.8
10442.8
-23332.8
10112
-24017.7
9784.92
-24382.9
9465.14
-24416.3
9133.41
-24076.1
8759.78
-23281.8
8305.78
-21918.1
7736.26
-19848.2
7030.07
-16944.1
6195.9
-12995
5150.95
-7513
3617.97
1587
-2162.99
16595.5
-4661.6
14887.7
-7121.02
15012.3
-9232.28
13937.6
-11252
13572.6
-12989.6
12866.2
-14551.8
12357.9
-15892.6
11783.6
-17052.5
11271.9
-18030.5
10763
-18825.3
10259.9
-19382.5
9690.64
-19575.7
8953.03
-19153.5
7883.56
-17723.9
6306.62
-14965.7
4271.9
-11105
2335.22
-6866.53
912.456
-2808.56
-440.003
-1221.55
-1500.6
18096.1
-3071.5
16458.6
-4345.73
16286.5
-5350.29
14942.2
-6271.41
14493.7
-6947.84
13542.7
-7535.76
12945.8
-7959.06
12206.9
-8287.15
11600
-8502.52
10978.3
-8625.91
10383.3
-8639.76
9704.48
-8514.59
8827.86
-8158.78
7527.75
-7397.69
5545.52
-6057.57
2931.78
-4427.36
705.009
-3434.2
-80.7035
-1894.28
-1979.93
-3115.84
-210.107
18306.2
-668.609
16917.1
-899.295
16517.2
-1012.48
15055.4
-1104.29
14585.5
-1051.81
13490.2
-966.86
12860.8
-766.67
12006.7
-497.997
11331.3
-128.195
10608.5
319.347
9935.75
815.933
9207.89
1274.5
8369.3
1522.41
7279.84
1272.09
5795.84
378.428
3825.44
-668.581
1752.01
-388.603
-360.69
-749.813
-1618.72
-3865.65
624.723
17681.4
460.452
17081.4
713.016
16264.6
1009.49
14758.9
1364.73
14230.3
1771.12
13083.8
2233.3
12398.6
2760.25
11479.7
3363.12
10728.4
4045.89
9925.75
4809.51
9172.12
5617.2
8400.2
6384.96
7601.54
6944.43
6720.36
7021.51
5718.76
6316.62
4530.34
4843.17
3225.45
2761.75
1720.73
1281.15
-138.123
-2584.5
925.029
16756.4
905.377
17101
1309.27
15860.7
1768.61
14299.5
2283.19
13715.7
2791.47
12575.5
3324.42
11865.7
3862.34
10941.8
4408.98
10181.8
4956.69
9378.04
5506.18
8622.64
6024.75
7881.63
6470.58
7155.7
6769.06
6421.88
6814.32
5673.51
6461.95
4882.7
5641.26
4046.15
4292.18
3069.81
2312.97
1841.09
-271.532
683.641
16072.8
1191.12
16593.6
1675.18
15376.7
1956.13
14018.6
2352.41
13319.4
2675.48
12252.5
3074.77
11466.4
3526.5
10490.1
4081.88
9626.42
4707.9
8752.01
5341.59
7988.95
5948.41
7274.81
6472.4
6631.71
6867.15
6027.13
7048.17
5492.48
6850.27
5080.6
6101.55
4794.86
4645.57
4525.79
2523.96
3962.69
2252.43
192.516
15880.3
710.826
16075.2
715.301
15372.2
215.475
14518.4
-228.084
13762.9
-818.184
12842.6
-1284.15
11932.4
-1631.71
10837.6
-1613.53
9608.25
-1042.11
8180.59
119.883
6826.96
1661.61
5733.09
3412.65
4880.67
5153.18
4286.6
6478.8
4166.86
6931.4
4628.01
6276.38
5449.88
4603
6199.17
2333.93
6231.76
4586.36
-519.729
16400
-943.916
16499.4
-1720.83
16149.1
-2788.97
15586.6
-3940.79
14914.8
-5243.09
14144.9
-6600.41
13289.7
-8011.67
12248.9
-9221.72
10818.3
-9823.33
8782.19
-9693.88
6697.51
-9123.91
5163.12
-8214
3970.75
-6958.58
3031.18
-5332.4
2540.69
-3413.67
2709.27
-1558.38
3594.59
-256.14
4896.94
189.721
5785.9
4776.08
-567.832
16967.8
-1143.21
17074.8
-1578.4
16584.3
-1957.62
15965.8
-2358.6
15315.7
-2880.62
14666.9
-3604.24
14013.3
-4647.9
13292.5
-6106.05
12276.4
-7946.65
10622.8
-9966.99
8717.86
-11956.9
7153.04
-13759.1
5773
-15114.1
4386.1
-15558
2984.65
-14589.4
1740.61
-11906.7
911.95
-7747.39
737.594
-3208.82
1247.32
1567.26
549.406
16418.4
865.744
16758.5
1507.63
15942.4
2298.69
15174.7
3112.52
14501.9
3867.52
13911.9
4483.14
13397.7
4861.44
12914.2
4772.04
12365.8
3858.41
11536.4
2222.87
10353.4
317.835
9058.07
-1611.8
7702.64
-3503.2
6277.5
-5316.93
4798.38
-6814.34
3238.02
-7469.77
1567.38
-6671.31
-60.8653
-4149.41
-1274.57
-2582.15
1528.2
14890.2
2694.61
15592.1
3921.85
14715.2
5131.19
13965.4
6298.17
13334.9
7428.81
12781.2
8555.52
12271
9710.52
11759.2
10745.5
11330.9
11356.2
10925.8
11394.5
10315
10964.7
9487.94
10161.4
8505.96
9012.27
7426.57
7528.09
6282.56
5715.09
5051.03
3566.24
3716.23
1320.64
2184.75
-128.306
174.379
-2710.46
1422.57
13467.6
2629.1
14385.5
3638.71
13705.6
4478.34
13125.8
5205.41
12607.8
5870.4
12116.3
6535.84
11605.5
7279.6
11015.5
8076.49
10534
8794.5
10207.8
9279.88
9829.63
9468.84
9298.98
9357.96
8616.84
8961.17
7823.37
8287.62
6956.1
7324.89
6013.77
6041.6
4999.51
4420.84
3805.5
2346.4
2248.82
-364.058
962.964
12504.7
1929.51
13419
2622.93
13012.2
3134.9
12613.8
3587.46
12155.3
4044.24
11659.5
4519.15
11130.6
5035.27
10499.4
5629.54
9939.72
6255.03
9582.27
6785.07
9299.59
7122.79
8961.27
7239.78
8499.86
7133.72
7929.43
6781.4
7308.42
6116.67
6678.51
5080
6036.18
3647.56
5237.95
1887.92
4008.46
1523.86
446.391
12058.3
869.341
12996.1
961.442
12920.1
1009.89
12565.4
1340.33
11824.9
2080.48
10919.3
3091.84
10119.3
4147.59
9443.6
5218.49
8868.83
6367.99
8432.77
7563.3
8104.29
8678.15
7846.42
9546.2
7631.81
10003.1
7472.5
9893.69
7417.87
9077.02
7495.18
7526.95
7586.25
5316.9
7448
2756.11
6569.25
4279.98
-422.167
12480.5
-1172.84
13746.7
-2321.91
14069.1
-3342.66
13586.1
-3791.52
12273.7
-3599
10726.8
-3128.23
9648.5
-2655.86
8971.24
-2068.28
8281.25
-1155.09
7519.58
190.787
6758.41
1953.21
6084
3995.05
5589.97
6026.47
5441.08
7568.24
5876.1
8100.13
6963.29
7337.6
8348.79
5375.04
9410.56
2677.83
9266.46
6957.81
-2296.58
14777
-4611.5
16061.7
-7074.35
16532
-9441.48
15953.2
-11548.1
14380.3
-13322.3
12501
-14949.5
11275.7
-16486.9
10508.7
-17812.4
9606.75
-18800.8
8507.95
-19342.8
7300.43
-19304.5
6045.67
-18569.9
4855.36
-17069.5
3940.72
-14726.8
3533.41
-11489.9
3726.33
-7651.76
4510.67
-3984.89
5743.69
-1368.95
6650.52
5588.86
-921.882
15698.9
-2986.39
18126.2
-4764.08
18309.7
-6454.19
17643.4
-8373.21
16299.3
-10403.8
14531.6
-12237.7
13109.6
-13792.6
12063.6
-15192.7
11006.8
-16536.8
9852.09
-17874.9
8638.49
-19210.7
7381.53
-20462.9
6107.55
-21374.3
4852.04
-21457
3616.16
-20057.2
2326.52
-16674.1
1127.6
-11303.3
372.913
-4927.47
274.654
661.384
2863.9
12835
2926.59
18063.5
2814.82
18421.4
2813.23
17645
2649.46
16463.1
2223.2
14957.8
1831.81
13501
1675.3
12220.1
1638.52
11043.6
1565.07
9925.54
1346.52
8857.05
904.205
7823.84
205.344
6806.42
-710.359
5767.75
-1734.37
4640.19
-2785.71
3377.87
-3721.47
2063.39
-3742.54
394.01
-2601.62
-866.242
-1940.24
3845
7236.33
10153.2
12825.1
15234.4
17232.1
18508
19589.8
20422.2
20974.4
21203.5
21066.4
20517.3
19503
17922.6
15653.6
12652.5
8619.92
4052.9
)
;

boundaryField
{
    outletWall
    {
        type            calculated;
        value           nonuniform List<scalar> 
60
(
92858
31547
-11453.6
-37749.1
-64154.6
-90778.3
-115128
-129366
-139735
-119155
-104605
-78492.1
4891.44
103160
116182
70317.2
-66886.4
-111192
-119767
-96696.7
97903.7
122035
110373
87850.4
68533.7
56175.3
46207.9
38983.6
35475.9
35159.7
36574.5
38345.1
39551.6
39800.7
39099.7
37717.7
36041.8
34425.3
33041.7
32211.8
-41783.9
-33862
-44120
-24516.9
878.184
30753.3
42058.6
46894.4
46197.8
39538.7
7316.17
-47305.6
-58788.6
-67565.7
-76857.3
-12111.7
75815.7
107093
97574
77487.1
)
;
    }
    fineWalls
    {
        type            calculated;
        value           uniform 0;
    }
    fineFrontAndBack
    {
        type            calculated;
        value           nonuniform List<scalar> 
960
(
4.16238e-14
-9.70247e-13
-5.38147e-14
-7.04637e-14
-2.49629e-12
-4.86967e-13
-9.16289e-14
-1.37961e-12
7.66852e-12
2.31682e-12
5.36252e-12
-1.73697e-11
-1.06776e-11
-9.52115e-12
-9.82235e-11
-2.24171e-11
-1.99825e-11
-8.87401e-11
-1.30849e-11
-9.83943e-12
-1.37464e-12
-1.13877e-12
-1.57921e-12
-2.0965e-12
-2.43845e-12
-2.46285e-12
-9.22688e-11
-1.96723e-12
-2.06122e-12
-2.27755e-12
-2.46179e-12
-2.68656e-12
-3.08567e-12
-3.62272e-12
-4.24941e-12
-4.98264e-12
-5.94748e-12
-7.50566e-12
-9.15316e-12
-1.1666e-11
-2.40162e-10
-2.30956e-11
-1.47425e-11
-7.50805e-12
2.398e-11
9.42837e-12
8.10788e-12
5.85831e-12
4.16743e-11
1.18408e-11
1.58098e-11
8.97168e-11
6.81651e-12
1.17453e-12
-5.26056e-12
-7.83448e-11
-1.26766e-11
-6.23325e-12
2.69181e-12
1.5645e-10
1.08155e-11
9.63532e-12
9.8079e-12
9.30786e-12
8.8897e-12
8.34432e-12
7.92763e-12
7.61712e-12
7.32927e-12
7.00825e-12
6.59415e-12
6.11025e-12
5.67484e-12
1.28144e-10
5.84925e-12
5.88207e-12
5.79514e-12
5.55322e-12
5.15179e-12
4.92298e-12
2.7436e-11
2.90907e-11
1.8844e-10
4.03095e-11
4.49276e-11
2.78928e-10
6.10995e-11
5.43677e-11
2.26103e-10
3.21512e-11
1.79644e-11
1.85227e-10
4.54863e-11
4.71194e-11
4.90079e-11
2.55393e-10
4.7202e-11
4.7521e-11
2.29617e-10
5.23107e-11
1.37032e-11
6.30456e-11
8.89378e-11
1.09384e-10
1.24013e-10
9.79348e-11
4.99843e-11
2.88617e-11
4.4299e-11
4.83905e-11
4.14452e-11
4.27962e-11
7.94101e-11
1.25856e-10
1.53929e-10
1.62234e-10
1.61709e-10
1.72967e-10
1.17558e-10
1.82797e-11
6.68939e-11
9.19249e-11
1.11472e-10
1.02342e-10
4.3466e-11
2.13316e-13
9.58988e-12
3.9195e-11
4.79882e-11
4.15907e-11
4.25254e-11
7.73789e-11
1.22472e-10
1.51334e-10
1.61656e-10
1.61259e-10
1.746e-10
1.19102e-10
2.43111e-11
7.17501e-11
9.61322e-11
1.11235e-10
6.97391e-11
1.10483e-11
-8.71013e-13
1.80583e-11
3.19594e-11
4.32185e-11
4.17702e-11
4.26503e-11
7.57572e-11
1.18842e-10
1.47929e-10
1.60424e-10
1.60967e-10
1.71957e-10
1.32303e-10
3.10106e-11
7.70489e-11
1.00681e-10
1.02901e-10
3.41301e-11
-3.77302e-12
1.00972e-11
3.09589e-11
2.93723e-11
3.11659e-11
3.44637e-11
4.21336e-11
7.57481e-11
1.16665e-10
1.4487e-10
1.58852e-10
1.60499e-10
1.73523e-10
1.12386e-10
3.80702e-11
8.27417e-11
1.04035e-10
8.58701e-11
1.15948e-11
4.0721e-12
3.53946e-11
5.52032e-11
4.38672e-11
3.39769e-11
3.9482e-11
4.0071e-11
7.76917e-11
1.17153e-10
1.43101e-10
1.56968e-10
1.59099e-10
1.75471e-10
1.04738e-10
4.52966e-11
8.87631e-11
1.05334e-10
7.05765e-11
9.49054e-12
2.79936e-11
6.78798e-11
8.81043e-11
7.4459e-11
5.35433e-11
5.06863e-11
4.4016e-11
8.27447e-11
1.20995e-10
1.42482e-10
1.51552e-10
1.57232e-10
1.70786e-10
1.48287e-10
5.22869e-11
9.49749e-11
1.05671e-10
6.59026e-11
2.34123e-11
5.57755e-11
9.57715e-11
1.20827e-10
1.15238e-10
7.41563e-11
5.94641e-11
6.15855e-11
9.53144e-11
1.28924e-10
1.38559e-10
1.26977e-10
1.24584e-10
1.46807e-10
1.87566e-10
5.81612e-11
1.01323e-10
1.06614e-10
6.96497e-11
4.11223e-11
7.09337e-11
9.76928e-11
1.23179e-10
1.48031e-10
1.40811e-10
1.03354e-10
9.77405e-11
1.19417e-10
1.35402e-10
1.14724e-10
6.61345e-11
4.94455e-11
1.07669e-10
1.88026e-10
6.18484e-11
1.06942e-10
1.09782e-10
8.03821e-11
5.05822e-11
5.69986e-11
5.99146e-11
5.98356e-11
8.82646e-11
1.4068e-10
1.69715e-10
1.60153e-10
1.49458e-10
1.25362e-10
7.43428e-11
1.82607e-11
-1.70056e-11
-2.07098e-11
-4.04427e-11
6.35137e-11
1.11416e-10
1.15343e-10
8.06298e-11
1.83164e-11
6.33155e-12
-3.1105e-12
-3.7723e-11
-2.89672e-11
4.17143e-12
3.4152e-11
5.15715e-11
5.99186e-11
1.03996e-11
-9.5782e-12
2.52174e-11
-1.91907e-11
-2.13814e-11
1.44601e-11
6.56584e-11
1.13784e-10
1.21711e-10
7.97429e-11
-2.1042e-11
-1.03736e-10
-1.38658e-10
-8.48243e-11
-7.67941e-11
-4.91615e-11
-4.87512e-12
1.94652e-11
2.51748e-11
2.43582e-11
2.92128e-11
4.01861e-11
2.3809e-11
3.34438e-11
5.19224e-11
7.27842e-11
1.14069e-10
1.26323e-10
8.31972e-11
-1.94389e-11
-7.81596e-11
-6.59739e-11
-5.53393e-11
-5.1661e-11
-5.95273e-11
-4.25875e-11
-1.30218e-11
9.07437e-12
3.3242e-11
5.10767e-11
5.35348e-11
3.56218e-11
-6.26116e-12
-2.97625e-11
8.90266e-11
1.14513e-10
1.28799e-10
9.20658e-11
2.36456e-12
-5.59669e-11
-8.07476e-11
-8.64089e-11
-4.89434e-11
-4.53672e-11
-5.77575e-11
-4.10877e-11
-1.41677e-11
1.85607e-11
4.57836e-11
2.97999e-11
-6.86346e-11
-2.2028e-10
-3.16005e-10
1.14339e-10
1.1855e-10
1.30687e-10
1.04249e-10
2.89034e-11
-6.04341e-11
-1.44497e-10
-1.56489e-10
-9.23833e-11
-4.10629e-11
-5.78631e-11
-5.67938e-11
-3.717e-11
-6.39621e-12
2.5435e-11
2.03894e-11
-3.13681e-11
-4.81638e-11
-1.01078e-10
1.43487e-10
1.29284e-10
1.3597e-10
1.19233e-10
5.31966e-11
-8.12677e-11
-1.77399e-10
-1.63323e-10
-1.18946e-10
-5.19927e-11
-5.36962e-11
-6.26036e-11
-5.32534e-11
-3.21334e-11
-4.96314e-12
2.17176e-12
-2.52258e-11
-4.17582e-11
-2.95999e-11
1.6989e-10
1.48878e-10
1.49074e-10
1.36829e-10
6.95646e-11
-1.06154e-10
-1.79203e-10
-1.47655e-10
-1.26849e-10
-7.69094e-11
-5.54071e-11
-6.5539e-11
-6.41804e-11
-5.20309e-11
-3.51279e-11
-2.49189e-11
-3.77662e-11
-5.27538e-11
-3.107e-11
1.8348e-10
1.70461e-10
1.64679e-10
1.48343e-10
6.5445e-11
-1.40657e-10
-1.6898e-10
-1.49401e-10
-1.39935e-10
-1.07321e-10
-7.21199e-11
-7.02912e-11
-7.32079e-11
-6.57555e-11
-5.70731e-11
-4.82989e-11
-5.87046e-11
-6.54794e-11
-4.26053e-11
1.63412e-10
1.66274e-10
1.5776e-10
1.32068e-10
2.83974e-11
-1.68962e-10
-1.61382e-10
-1.54603e-10
-1.47489e-10
-1.31147e-10
-9.95342e-11
-8.25165e-11
-8.39279e-11
-7.77739e-11
-7.31665e-11
-6.54398e-11
-8.49188e-11
-6.93709e-11
-3.39456e-11
1.05717e-10
1.24121e-10
1.18039e-10
8.2614e-11
-3.36693e-11
-1.69664e-10
-1.609e-10
-1.55242e-10
-1.47177e-10
-1.39747e-10
-1.23724e-10
-1.04769e-10
-1.01003e-10
-9.5414e-11
-8.99625e-11
-8.38252e-11
-9.84695e-11
-6.38969e-11
-2.50021e-11
-2.06496e-11
7.17327e-12
1.21349e-11
-1.49484e-11
-1.05502e-10
-1.62068e-10
-1.61827e-10
-1.55727e-10
-1.47513e-10
-1.40942e-10
-1.34375e-10
-1.25909e-10
-1.21297e-10
-1.17436e-10
-1.11093e-10
-1.057e-10
-1.02756e-10
-5.70487e-11
-2.13674e-11
-4.16238e-14
9.70247e-13
5.38147e-14
7.04637e-14
2.49629e-12
4.86967e-13
9.16289e-14
1.37961e-12
-7.66852e-12
-2.31682e-12
-5.36252e-12
1.73697e-11
1.06776e-11
9.52115e-12
9.82235e-11
2.24171e-11
1.99825e-11
8.87401e-11
1.30849e-11
9.83943e-12
1.37464e-12
1.13877e-12
1.57921e-12
2.0965e-12
2.43845e-12
2.46285e-12
9.22688e-11
1.96723e-12
2.06122e-12
2.27755e-12
2.46179e-12
2.68656e-12
3.08567e-12
3.62272e-12
4.24941e-12
4.98264e-12
5.94748e-12
7.50566e-12
9.15316e-12
1.1666e-11
2.40162e-10
2.30956e-11
1.47425e-11
7.50805e-12
-2.398e-11
-9.42837e-12
-8.10788e-12
-5.85831e-12
-4.16743e-11
-1.18408e-11
-1.58098e-11
-8.97168e-11
-6.81651e-12
-1.17453e-12
5.26056e-12
7.83448e-11
1.26766e-11
6.23325e-12
-2.69181e-12
-1.5645e-10
-1.08155e-11
-9.63532e-12
-9.8079e-12
-9.30786e-12
-8.8897e-12
-8.34432e-12
-7.92763e-12
-7.61712e-12
-7.32927e-12
-7.00825e-12
-6.59415e-12
-6.11025e-12
-5.67484e-12
-1.28144e-10
-5.84925e-12
-5.88207e-12
-5.79514e-12
-5.55322e-12
-5.15179e-12
-4.92298e-12
-2.7436e-11
-2.90907e-11
-1.8844e-10
-4.03095e-11
-4.49276e-11
-2.78928e-10
-6.10995e-11
-5.43677e-11
-2.26103e-10
-3.21512e-11
-1.79644e-11
-1.85227e-10
-4.54863e-11
-4.71194e-11
-4.90079e-11
-2.55393e-10
-4.7202e-11
-4.7521e-11
-2.29617e-10
-5.23107e-11
-1.37032e-11
-6.30456e-11
-8.89378e-11
-1.09384e-10
-1.24013e-10
-9.79348e-11
-4.99843e-11
-2.88617e-11
-4.4299e-11
-4.83905e-11
-4.14452e-11
-4.27962e-11
-7.94101e-11
-1.25856e-10
-1.53929e-10
-1.62234e-10
-1.61709e-10
-1.72967e-10
-1.17558e-10
-1.82797e-11
-6.68939e-11
-9.19249e-11
-1.11472e-10
-1.02342e-10
-4.3466e-11
-2.13316e-13
-9.58988e-12
-3.9195e-11
-4.79882e-11
-4.15907e-11
-4.25254e-11
-7.73789e-11
-1.22472e-10
-1.51334e-10
-1.61656e-10
-1.61259e-10
-1.746e-10
-1.19102e-10
-2.43111e-11
-7.17501e-11
-9.61322e-11
-1.11235e-10
-6.97391e-11
-1.10483e-11
8.71013e-13
-1.80583e-11
-3.19594e-11
-4.32185e-11
-4.17702e-11
-4.26503e-11
-7.57572e-11
-1.18842e-10
-1.47929e-10
-1.60424e-10
-1.60967e-10
-1.71957e-10
-1.32303e-10
-3.10106e-11
-7.70489e-11
-1.00681e-10
-1.02901e-10
-3.41301e-11
3.77302e-12
-1.00972e-11
-3.09589e-11
-2.93723e-11
-3.11659e-11
-3.44637e-11
-4.21336e-11
-7.57481e-11
-1.16665e-10
-1.4487e-10
-1.58852e-10
-1.60499e-10
-1.73523e-10
-1.12386e-10
-3.80702e-11
-8.27417e-11
-1.04035e-10
-8.58701e-11
-1.15948e-11
-4.0721e-12
-3.53946e-11
-5.52032e-11
-4.38672e-11
-3.39769e-11
-3.9482e-11
-4.0071e-11
-7.76917e-11
-1.17153e-10
-1.43101e-10
-1.56968e-10
-1.59099e-10
-1.75471e-10
-1.04738e-10
-4.52966e-11
-8.87631e-11
-1.05334e-10
-7.05765e-11
-9.49054e-12
-2.79936e-11
-6.78798e-11
-8.81043e-11
-7.4459e-11
-5.35433e-11
-5.06863e-11
-4.4016e-11
-8.27447e-11
-1.20995e-10
-1.42482e-10
-1.51552e-10
-1.57232e-10
-1.70786e-10
-1.48287e-10
-5.22869e-11
-9.49749e-11
-1.05671e-10
-6.59026e-11
-2.34123e-11
-5.57755e-11
-9.57715e-11
-1.20827e-10
-1.15238e-10
-7.41563e-11
-5.94641e-11
-6.15855e-11
-9.53144e-11
-1.28924e-10
-1.38559e-10
-1.26977e-10
-1.24584e-10