/*--------------------------------*- C++ -*----------------------------------*\
| =========                 |                                                 |
| \\      /  F ield         | OpenFOAM: The Open Source CFD Toolbox           |
|  \\    /   O peration     | Version:  4.1                                   |
|   \\  /    A nd           | Web:      www.OpenFOAM.org                      |
|    \\/     M anipulation  |                                                 |
\*---------------------------------------------------------------------------*/
FoamFile
{
    version     2.0;
    format      ascii;
    class       volScalarField;
    location    "15";
    object      p;
}
// * * * * * * * * * * * * * * * * * * * * * * * * * * * * * * * * * * * * * //

dimensions      [0 2 -2 0 0 0 0];

internalField   nonuniform List<scalar> 
1680
(
2.84868
1.09272
0.9
1.3209
1.20041
0.972166
1.011
1.00711
1.04795
0.861843
0.921302
0.861945
0.722792
1.08059
0.464669
0.107733
0.453364
-1.78553
2.59903
-6.13691
2.73489
-25.0263
3.83085
1.97369
3.13498
4.61695
5.81775
6.90823
8.79746
9.30751
12.7707
-13.5919
3.2142
3.13112
4.21378
4.69564
5.95597
5.53116
9.72214
5.41047
-39.4532
-14.5275
-11.4565
6.53708
1.84558
1.98033
5.28126
13.1748
10.776
11.0686
12.2842
12.3224
12.3532
12.3696
12.3563
12.3155
12.3313
12.3275
12.2858
12.1233
5.12768
14.0045
30.4316
39.3305
37.7597
37.2556
40.4923
41.7014
37.1919
29.2813
20.8376
11.5438
1.38956
2.39006
8.4065
9.26472
-8.23534
-0.0589971
16.8893
-12.1539
8.15143
29.401
38.4623
37.4935
36.2884
39.0984
40.1617
36.0534
28.8032
20.5723
11.882
2.48058
3.18968
9.12435
11.3535
-2.12045
1.19087
14.7347
-33.4101
1.14177
27.8593
37.8002
37.2117
35.1803
37.4695
38.4097
34.7853
28.1309
20.2749
12.1023
3.36933
3.83701
9.34336
11.9886
0.608607
-1.12784
14.9295
-59.3114
-7.74255
25.6562
37.2392
36.8441
33.8972
35.592
36.47
33.3704
27.3535
19.9492
12.1843
4.07835
4.3166
8.8699
11.5065
-0.00177795
-5.02377
20.7838
-90.7683
-19.195
22.6825
36.7443
36.4064
32.3985
33.4755
34.4126
31.8255
26.4958
19.605
12.1142
4.57641
4.61274
8.00816
10.045
-1.25082
-6.39625
18.5284
-128.768
-34.2114
18.5383
36.3864
35.8196
30.6821
31.1652
32.3789
30.2588
25.6119
19.2643
11.8826
4.86188
4.72224
7.19269
8.30737
-1.77409
-5.2965
3.51538
-174.756
-54.5373
13.0577
36.3812
34.7799
28.7339
28.6806
30.5072
28.8363
24.8058
18.9305
11.4852
4.94842
4.66706
6.43772
6.96377
-0.760037
-4.3485
0.568907
-229.281
-81.8748
6.28352
36.9778
32.824
26.4424
25.8731
28.7405
27.6717
24.1428
18.5925
10.9514
4.84856
4.46702
5.71467
5.83987
-0.144571
-3.40669
0.789888
-295.67
-116.938
-1.81504
38.056
29.1202
23.4844
22.3128
26.7008
26.6988
23.5749
18.218
10.2972
4.55291
4.13091
4.99654
4.86833
-0.0174384
-2.40727
0.906898
-370.907
-160.719
-11.6384
39.2366
22.0804
19.2521
17.2768
23.8235
25.5942
23.0386
17.8841
9.66711
4.09055
3.67608
4.28563
4.02534
0.26324
-1.92422
0.949714
-467.28
-211.187
-22.3843
40.2514
9.30581
12.8313
9.79677
19.501
23.8736
22.2939
17.2241
8.88356
3.41713
3.0744
3.55815
3.27106
0.371412
-1.40023
1.01319
-558.385
-264.297
-32.5715
38.6391
-12.1668
3.00173
-1.10555
12.5111
20.4749
21.5475
16.7097
8.07369
2.62634
2.39482
2.85934
2.61397
0.404843
-1.04908
1.01876
-712.392
-312.236
-42.6313
28.7357
-44.2857
-10.7748
-16.224
1.2041
13.8806
19.576
15.2538
6.39199
1.37734
1.46988
2.07558
1.95361
0.349844
-0.831893
0.948155
-770.47
-356.689
-40.9183
10.7561
-76.0417
-21.2824
-31.1898
-13.4869
4.73728
18.3689
14.7627
5.06787
0.360834
0.729881
1.47891
1.4733
0.335004
-0.622838
0.845277
-1139.77
-388.009
-50.1347
-8.66566
-86.8498
-22.9976
-38.3915
-20.5171
-5.83933
12.5736
10.0834
0.689131
-2.31365
-0.831779
0.423718
0.70905
0.0612344
-0.598356
0.595833
-865.536
-447.394
-125.973
-35.031
-91.5754
-26.2909
-39.1028
-21.2041
-11.982
13.3503
13.0029
1.53888
-1.9864
-0.712995
0.465708
0.728769
0.260076
-0.354057
0.526085
-2360.7
-480.14
-106.603
-51.3512
-85.7502
-24.8872
-34.515
-22.4434
-12.6225
-5.2165
-8.24443
-14.0024
-10.3285
-4.9577
-2.11768
-1.01507
-0.74579
-0.78829
-0.186945
227.279
-667.861
370.309
-24.5758
-68.4006
-14.8562
-24.0791
-18.2506
-8.80482
16.4923
27.2617
9.34952
2.10006
1.34912
1.72529
1.5615
1.03765
0.218568
0.431009
-7585.9
-582.826
-794.557
-40.6335
-155.66
-37.6826
-50.393
-30.1081
-6.24535
-44.7129
-82.0363
-68.1241
-37.7713
-18.0392
-9.72801
-5.93922
-3.71917
-2.03508
-2.04292
12206.1
-1429.61
-2652.8
-93.6734
-273.131
-67.6708
-80.2015
-48.2843
-11.1945
65.7793
165.701
121.985
62.4525
30.7613
18.807
12.4469
8.117
3.65742
2.67577
103.327
102.7
102.352
101.462
100.565
99.6086
98.6357
97.6319
96.6259
95.6296
94.6119
93.6802
92.598
91.4079
90.3367
89.2921
88.3802
87.3951
86.7853
85.5719
83.4234
83.886
84.0729
84.299
84.4654
84.5745
84.6555
84.6811
84.6842
84.6389
84.576
84.4787
84.3366
84.1681
83.9941
83.7913
83.6115
83.3974
83.2215
82.975
92.1468
91.8592
91.7164
91.5152
91.3568
91.1706
91.0023
90.8179
90.6418
90.4536
90.2715
90.0756
89.8915
89.6869
89.4986
89.2851
89.103
88.8771
88.7203
88.4319
89.2364
89.2505
89.2586
89.2489
89.2536
89.2343
89.2254
89.1985
89.1767
89.1411
89.1086
89.0636
89.0229
88.9676
88.9228
88.8563
88.8114
88.7344
88.6908
88.5892
91.2704
91.1629
91.1249
91.0446
90.9955
90.9243
90.8698
90.8028
90.7455
90.68
90.6214
90.5553
90.497
90.4282
90.3725
90.2984
90.2488
90.1658
90.1273
90.0192
91.318
91.2645
91.2518
91.207
91.1862
91.1455
91.1188
91.0802
91.0495
91.0112
90.9784
90.9389
90.9057
90.8633
90.832
90.7843
90.7583
90.7018
90.6858
90.6126
92.1736
92.1022
92.0822
92.0271
91.998
91.9498
91.9161
91.8719
91.8357
91.7935
91.7565
91.7146
91.6785
91.6351
91.602
91.5544
91.5276
91.472
91.4567
91.3854
92.6789
92.6187
92.6031
92.5556
92.5319
92.4903
92.462
92.4239
92.393
92.3567
92.3246
92.2887
92.2572
92.2198
92.191
92.1496
92.1268
92.0774
92.0656
92.0021
93.2989
93.2379
93.2215
93.1738
93.1493
93.1079
93.0791
93.0414
93.0103
92.9747
92.9427
92.9078
92.8763
92.8404
92.8115
92.772
92.7491
92.7019
92.69
92.629
93.8422
93.7852
93.7698
93.725
93.702
93.6631
93.636
93.6006
93.5711
93.5378
93.5073
93.4749
93.4446
93.4114
93.3835
93.3469
93.3247
93.2806
93.2691
93.2115
94.386
94.331
94.3157
94.2725
94.25
94.2125
94.1861
94.152
94.1234
94.0915
94.0617
94.0308
94.0011
93.9698
93.9422
93.9078
93.8856
93.844
93.8323
93.7773
94.8986
94.8463
94.8316
94.7905
94.7689
94.7331
94.7078
94.6754
94.6479
94.6176
94.5888
94.5599
94.5308
94.5018
94.4744
94.4427
94.4204
94.3816
94.3698
94.3176
95.3927
95.3429
95.3284
95.2891
95.2682
95.234
95.2096
95.1786
95.1521
95.1233
95.0955
95.0681
95.0398
95.0127
94.9856
94.9564
94.9339
94.898
94.8857
94.8363
95.8649
95.8178
95.8035
95.7661
95.7458
95.7132
95.6897
95.66
95.6346
95.6071
95.5802
95.5543
95.5266
95.5015
95.4744
95.4479
95.4248
95.3921
95.379
95.3324
96.3161
96.2721
96.2582
96.2231
96.2039
96.1729
96.1507
96.1226
96.0983
96.0722
96.0465
96.022
95.9952
95.9719
95.9448
95.921
95.897
95.8676
95.8534
95.8098
96.7348
96.6943
96.6808
96.6482
96.6307
96.6017
96.5814
96.5557
96.5331
96.5094
96.4858
96.4633
96.4386
96.4177
96.3916
96.3715
96.3466
96.3217
96.3061
96.2667
97.1297
97.0924
97.0777
97.0455
97.0293
97.0009
96.9808
96.9565
96.9344
96.9119
96.8896
96.8682
96.8455
96.8262
96.8017
96.7858
96.7602
96.742
96.7262
96.692
97.5291
97.5018
97.4905
97.4581
97.4451
97.4196
97.3999
97.3773
97.3552
97.3323
97.3087
97.2849
97.2598
97.2359
97.2077
97.1875
97.1534
97.1383
97.1121
97.0745
97.8032
97.7941
97.8092
97.7886
97.7888
97.7814
97.7768
97.7715
97.7659
97.7595
97.7518
97.7423
97.7303
97.7156
97.6953
97.6743
97.6358
97.6145
97.5425
97.4856
97.7686
97.7103
97.7484
97.7591
97.7766
97.7943
97.8132
97.8339
97.8566
97.8816
97.9095
97.9405
97.9753
98.0141
98.0576
98.1067
98.1594
98.228
98.2693
98.4325
12.1118
12.0639
12.0733
12.0343
12.0373
12.0738
11.2034
10.2948
10.3914
11.0223
4.53421
5.27068
6.16473
-6.13369
-10.4039
-8.68707
-7.55937
-27.9332
-25.905
-45.0451
-19.6287
-15.2022
-16.9196
-15.4456
-13.7522
-10.9053
-7.77858
-4.85944
-17.3621
2.47929
4.01667
5.66075
6.86754
7.95989
8.92398
10.1119
11.1958
7.3156
-25.0353
-7.24518
-21.3253
1.0567
-25.2921
-14.307
-22.3638
-14.2736
-3.94639
-18.3844
-10.7001
-13.5505
-8.75312
-4.54925
-12.2425
-9.12265
-10.4293
-15.3018
-15.3956
-15.9119
-15.7729
-15.8843
61.4892
43.4415
55.5303
53.0134
46.0931
46.9616
52.9648
49.537
45.1964
37.5162
33.8652
34.1882
42.7043
58.5322
57.1795
6.51869
-69.4088
-68.0441
-29.8548
60.9976
41.5506
55.0723
52.3157
45.9262
46.5783
52.8889
49.3839
44.9827
37.2
33.5786
33.8457
41.9652
57.5963
55.6575
4.08214
-74.2834
-73.7259
-32.0641
59.4578
37.6404
54.7826
52.9561
46.3286
45.7816
51.8485
48.8577
44.849
36.8818
33.0555
33.0053
40.4226
55.5354
52.6333
0.0216238
-80.7957
-83.2586
-36.3086
57.3354
32.6947
55.3126
54.296
47.5203
45.0118
50.747
48.3799
44.8056
36.3969
32.2894
31.6875
38.0482
52.3954
48.4771
-5.15134
-88.4814
-93.6005
-40.9224
55.298
27.9986
55.6924
55.1617
48.5534
44.2703
49.8306
48.0192
44.9179
35.8254
31.3285
29.9418
34.9021
48.204
43.5103
-10.9414
-96.0731
-103.442
-45.6537
53.8553
24.1736
55.3418
55.3126
48.8695
43.4196
49.1115
47.8728
45.1297
35.1543
30.2437
27.8713
31.1197
43.1149
38.1181
-16.7626
-102.872
-111.81
-51.3379
53.3199
21.4562
54.517
54.5594
48.077
42.5751
48.6098
48.0144
45.3668
34.3712
29.0916
25.6081
26.8822
37.3357
32.549
-22.1623
-108.125
-118.037
-55.7293
52.7444
19.6296
53.0555
52.9916
46.2483
41.9584
48.1604
48.4194
45.4681
33.5226
27.9612
23.3307
22.4071
31.0923
27.0074
-26.6248
-111.434
-121.612
-58.7327
50.206
17.9752
50.8541
51.0393
43.8822
41.805
47.8285
48.8885
45.3784
32.7068
26.9775
21.2102
17.8604
24.5442
21.6747
-29.6426
-112.422
-122.329
-59.997
48.7563
16.9703
47.7959
48.6814
41.6747
41.5122
47.8394
49.3295
45.2487
32.0194
26.2381
19.3611
13.274
17.7909
16.7109
-30.9445
-110.491
-120.244
-58.0639
52.8791
18.3461
44.6308
46.1353
40.243
40.6643
48.0592
49.6712
45.0139
31.488
25.7161
17.704
8.59067
10.9885
12.2936
-30.521
-105.847
-115.898
-55.8796
60.0459
22.631
42.8313
43.9009
40.4523
39.8179
47.9237
49.7574
44.6146
31.0381
25.2467
15.8715
3.86219
4.5577
8.69855
-28.3923
-98.8541
-109.373
-48.976
65.3391
27.5843
41.7752
42.1749
42.2014
39.4187
47.1971
49.4891
43.9393
30.5894
24.6902
13.4248
-0.509906
-0.451953
6.49275
-24.9893
-92.6298
-101.796
-46.853
67.8516
31.1916
40.6273
40.8594
42.6797
39.5306
46.2732
48.7135
43.2699
30.1659
24.0318
10.7377
-3.30038
-2.56076
6.2794
-20.4428
-86.278
-94.0747
-38.6107
67.0793
32.9244
39.2409
40.1947
41.3823
39.5997
45.5608
48.0434
42.7098
29.8475
23.351
9.11239
-3.99664
-2.28707
7.65627
-14.9889
-73.7896
-81.9013
-28.2092
62.9269
32.7641
37.6447
40.7757
40.0901
39.814
45.0623
47.4143
42.0594
29.7185
22.6705
9.27643
-3.83353
-0.943174
9.16255
-9.81117
-59.0966
-63.4048
-8.21177
55.7092
30.9446
35.9007
42.2399
39.3618
39.7829
44.4324
46.569
41.2567
29.7393
22.088
9.74844
-2.90852
0.182534
9.83131
-5.18622
-44.9955
-45.8384
4.44061
45.8057
27.8462
34.1197
42.3577
38.8669
39.4189
43.6518
45.4366
40.3088
29.7696
21.6496
10.1705
-1.95078
0.785311
9.39371
-1.18759
-31.7093
-28.8105
10.5129
33.8332
23.8365
32.5729
41.3785
38.3583
38.8496
42.7338
44.2084
39.2758
29.7178
21.338
10.6353
-1.02851
1.28209
8.25327
2.43737
-21.5702
-14.3031
12.7457
20.2288
19.2291
31.3762
40.3205
38.032
38.1074
41.6873
42.9988
38.2372
29.5575
21.0842
11.1163
0.0980368
1.8049
7.7439
6.04545
-14.2385
-3.99732
13.8079
715.413
632.657
583.41
527.156
478.145
430.922
387.067
345.714
306.863
270.228
235.63
202.864
171.716
142.092
113.977
86.5461
60.0209
38.7612
14.8976
-20.9636
24.1684
1.95772
10.008
-0.923542
-3.68566
-10.2688
-15.2067
-20.4526
-25.0239
-29.1291
-32.5417
-35.1998
-36.9951
-37.8459
-37.6046
-36.2797
-34.0497
-30.7685
-27.0776
-24.1296
16.72
10.8125
19.6775
13.5515
16.4425
13.979
13.6698
12.1015
10.8713
9.39106
7.98739
6.62861
5.41872
4.37383
3.54357
3.01789
2.74472
3.08982
4.18971
5.90278
34.7607
30.997
33.8736
27.9015
29.0864
25.4084
24.5843
22.456
21.1777
19.7864
18.7446
17.9005
17.3349
16.9998
16.828
16.7285
16.6091
16.418
15.9158
14.6361
6.09681
1.77708
3.3827
-1.10506
0.225853
-2.67798
-2.57063
-4.06341
-4.50834
-5.32869
-5.81736
-6.34551
-6.8064
-7.35358
-7.99933
-8.95678
-10.4511
-12.2086
-15.535
-17.6173
-26.4009
-30.5796
-29.6879
-33.7055
-33.2994
-36.7568
-37.585
-40.4222
-42.3255
-45.0754
-47.6765
-50.4931
-53.1116
-55.467
-57.4152
-59.082
-60.367
-60.9144
-61.4618
-59.6297
-41.7343
-44.1685
-42.4905
-45.2745
-43.824
-46.2029
-45.7687
-47.2865
-47.6452
-48.5849
-49.1296
-49.5293
-49.4279
-48.6981
-47.3929
-45.5447
-43.4628
-40.9959
-39.1984
-35.6649
-22.2673
-21.9455
-19.2835
-19.99
-17.058
-17.1387
-14.9083
-13.9746
-12.206
-10.6685
-8.91939
-7.09485
-5.17237
-3.13151
-1.04032
1.17015
3.34181
5.78528
7.78254
10.9227
4.34251
6.13896
8.62567
8.89626
11.7146
12.3798
14.5607
15.8777
17.5976
19.159
20.7362
22.2997
23.8412
25.3915
26.9337
28.5362
30.0922
31.8151
33.1433
34.9401
29.4738
31.3733
33.1936
33.5719
35.6646
36.1878
37.7636
38.6875
39.8733
40.9509
42.0539
43.1934
44.3712
45.5856
46.8124
48.0485
49.2393
50.5284
51.4949
52.7372
45.3841
47.6103
49.1807
50.1603
52.2012
53.2476
55.1744
56.5646
58.1762
59.421
60.3804
60.7848
60.5133
59.4832
57.9145
56.2576
55.3954
55.364
55.9526
55.9208
67.5897
68.0875
68.5635
68.306
68.8198
68.2417
68.0858
66.9366
65.6055
63.4842
60.8809
57.6654
54.0081
50.0877
46.3294
43.1929
40.9881
39.8039
39.7994
37.7293
47.1255
42.8456
41.0378
37.9894
36.1864
33.3771
31.2606
28.6748
26.4767
24.1462
22.0061
19.8377
17.7359
15.6552
13.7369
12.0917
11.0705
11.3188
10.9768
6.68041
-4.86398
-11.5434
-14.9087
-19.6045
-23.697
-28.5997
-33.2329
-38.3473
-43.1652
-47.9222
-52.2072
-56.0309
-59.1414
-61.4187
-62.6783
-62.9887
-62.5261
-61.9239
-62.2263
-61.8257
-45.4917
-49.6496
-52.2482
-55.2579
-57.6343
-60.3774
-62.6148
-64.8493
-66.4434
-67.5374
-67.9214
-67.6864
-66.8441
-65.4866
-63.7701
-61.8155
-59.9463
-57.9306
-56.255
-52.852
-46.9529
-46.4754
-44.0765
-42.0692
-40.1259
-38.4744
-36.606
-34.8053
-32.8845
-30.9552
-29.0073
-27.0799
-25.2075
-23.3818
-21.6464
-19.8758
-18.1781
-16.0385
-14.032
-10.9898
-28.7764
-26.012
-21.9267
-18.078
-14.7335
-11.8981
-9.19267
-6.76071
-4.47185
-2.38093
-0.468426
1.28314
2.88164
4.37797
5.76387
7.13678
8.38718
9.75945
10.7626
12.2409
5.38821
7.98619
9.53838
11.2808
12.6568
13.8357
14.9854
15.9568
16.8849
17.7183
18.4979
19.2415
19.9623
20.6936
21.4212
22.2206
22.9886
23.9377
24.6402
25.7391
23.0937
25.4751
25.1573
25.9875
26.4479
27.125
27.7726
28.3586
28.9441
29.4796
30.0035
30.5242
31.0329
31.5705
32.1331
32.7775
33.4304
34.2641
34.8507
35.7579
61.7676
62.4523
61.0345
60.0956
58.1378
56.3417
54.4022
52.4656
50.5749
48.7878
47.1147
45.6897
44.4822
43.5242
42.7794
42.1978
41.7903
41.4231
41.2527
40.6255
)
;

boundaryField
{
    outletWallLeft
    {
        type            fixedValue;
        value           uniform 0;
    }
    fineWallsLeft
    {
        type            zeroGradient;
    }
    fineFrontAndBackLeft
    {
        type            zeroGradient;
    }
    fineplugLeft
    {
        type            cyclicAMI;
        value           nonuniform List<scalar> 
20
(
83.2089
87.8641
82.648
81.5643
81.0791
80.6103
80.0721
79.4872
79.0602
78.3652
78.2436
81.2198
74.7212
73.7525
73.1121
72.3728
71.8954
71.0223
71.3726
69.5396
)
;
    }
    symmetryWallLeft
    {
        type            cyclicAMI;
        value           nonuniform List<scalar> 
20
(
12.1175
15.3486
-2.02816
-11.2369
7.65508
8.0752
2.09748
0.743799
11.33
20.9609
29.4194
37.7146
42.3501
41.0898
37.6815
37.8959
39.8255
30.9039
16.6168
12.6782
)
;
    }
    inletOutletLeft
    {
        type            cyclicAMI;
        value           nonuniform List<scalar> 
20
(
69.5396
71.3726
71.0223
71.8954
72.3728
73.1121
73.7525
74.7212
81.2198
78.2436
78.3652
79.0602
79.4872
80.0721
80.6103
81.0791
81.5643
82.648
87.8641
83.2089
)
;
    }
    inletLeft
    {
        type            zeroGradient;
    }
    inletWallsLeft
    {
        type            zeroGradient;
    }
    inletFacesLeft
    {
        type            zeroGradient;
    }
    fineWallsRight
    {
        type            zeroGradient;
    }
    outletWallRight
    {
        type            zeroGradient;
    }
    fineplugRight
    {
        type            cyclicAMI;
        value           nonuniform List<scalar> 
20
(
28.5747
29.9617
29.7546
30.3431
31.0078
32.0425
33.2636
34.6139
38.3658
38.1876
39.8336
41.5921
43.346
45.1137
46.8581
48.5326
50.3156
50.2907
52.29
47.965
)
;
    }
    fineFrontAndBackRight
    {
        type            zeroGradient;
    }
    symmetryWallRight
    {
        type            cyclicAMI;
        value           nonuniform List<scalar> 
20
(
12.1175
15.3486
-2.02816
-11.2369
7.65508
8.0752
2.09748
0.743799
11.33
20.9609
29.4194
37.7146
42.3501
41.0898
37.6815
37.8959
39.8255
30.9039
16.6168
12.6782
)
;
    }
    inletOutletRight
    {
        type            cyclicAMI;
        value           nonuniform List<scalar> 
20
(
28.5747
29.9617
29.7546
30.3431
31.0078
32.0425
33.2636
34.6139
38.3658
38.1876
39.8336
41.5921
43.346
45.1137
46.8581
48.5326
50.3156
50.2907
52.29
47.965
)
;
    }
    inletRight
    {
        type            zeroGradient;
    }
    inletWallsRight
    {
        type            zeroGradient;
    }
    inletFacesRight
    {
        type            zeroGradient;
    }
}


// ************************************************************************* //
