/*--------------------------------*- C++ -*----------------------------------*\
| =========                 |                                                 |
| \\      /  F ield         | OpenFOAM: The Open Source CFD Toolbox           |
|  \\    /   O peration     | Version:  4.1                                   |
|   \\  /    A nd           | Web:      www.OpenFOAM.org                      |
|    \\/     M anipulation  |                                                 |
\*---------------------------------------------------------------------------*/
FoamFile
{
    version     2.0;
    format      ascii;
    class       surfaceScalarField;
    location    "15";
    object      phi;
}
// * * * * * * * * * * * * * * * * * * * * * * * * * * * * * * * * * * * * * //

dimensions      [0 3 -1 0 0 0 0];

internalField   nonuniform List<scalar> 
3120
(
190.941
-3585.03
190.942
517.156
-326.216
517.156
961.358
-444.204
1321.99
-360.632
1321.99
1725.99
-404.007
2197.37
-471.379
2197.37
2762.51
-565.139
2762.5
3361.44
-598.942
4039.04
-677.602
4039.04
4913.31
-874.272
4913.31
6099.29
-1185.98
6599.33
-500.04
6599.33
7160.93
10335.6
-2195.63
11325.2
12289.7
13256
14229.1
15208.8
16194
17184.3
18179
19179.6
17690.2
2488.03
18710.5
19738.7
20771.8
21810.3
22851.9
23915
25023.4
25806.9
19183.3
6623.61
19183.3
19183.3
11535.6
7647.67
11535.6
11535.6
11535.7
4322
7213.65
4322
4322.01
-148.824
4470.86
-148.728
-148.628
-148.566
-108.541
-39.9643
-108.459
-108.379
-108.336
417.144
-525.463
-2457.06
32196.7
-4138.66
21406.2
-2658.81
8308.56
-812.482
-3065.02
-110.216
-5755.18
502.251
-9573.5
1072.98
-9195.33
1587.54
-4456.07
2325.68
668.631
3159.02
3466.71
3817.76
4923.12
3792.52
6450.56
3070.28
5512.42
2211.55
2121.25
-66.1959
-647.663
-4756.69
-8363.11
-7180.09
-13766
-4251.03
-8707.99
-2156.84
-2684.09
34933.4
-4040.22
22762.4
-2580.95
6849.28
-732.977
-4913
252.504
-6740.67
910.042
-10231
1430.55
-9715.85
1913.27
-4938.79
2433.94
147.929
3005.52
2895.12
3704.15
4224.48
3890.39
6264.32
3350.03
6052.77
2602.33
2868.95
960.234
994.417
-3675.16
-3727.73
-7887.22
-9553.95
-6574.12
-10021.1
-8770.92
-3138.64
38202.1
-4068.94
23692.7
-2523.74
5304.07
-626.728
-6810.01
565.967
-7933.36
1291.91
-10957
1792.06
-10216
2229.48
-5376.21
2581.41
-204.005
2918.91
2557.61
3533.44
3609.96
3866.59
5931.17
3529.34
6390.03
2881.87
3516.41
1553.21
2323.08
-2499.97
325.454
-7278.75
-4775.17
-8053.03
-9246.82
-12353.1
-3621.81
42032.5
-4209.01
24279.9
-2448.16
3543.21
-402.959
-8855.21
914.678
-9251
1628.33
-11670.6
2074.45
-10662.1
2476.94
-5778.7
2750.58
-477.66
2926.66
2381.52
3383.01
3153.59
3769.63
5544.55
3614.33
6545.32
3043.68
4087.06
2218.13
3148.62
-820.553
3364.13
-5412.79
-182.94
-7820.98
-6838.62
-12960.4
-4022.19
46343.3
-4473.81
24731.5
-2323.25
1392.65
13.7444
-11192.2
1404.29
-10641.6
1966.33
-12232.7
2229.22
-10925
2571.01
-6120.49
2879.8
-786.448
3018.1
2243.22
3300.68
2871.01
3636.09
5209.14
3596.29
6585.12
3101.43
4581.92
2657.13
3592.92
1296.93
4724.34
-1696.49
2810.47
-5229.27
-3305.84
-10542
-4333.69
51048
-4911.18
25309
-2137.62
-1380.92
647.695
-13977.5
2114.43
-12108.3
2432.07
-12550.3
2323.18
-10816.1
2466.31
-6263.62
2859.01
-1179.16
3130.09
1972.13
3305.77
2695.33
3503.01
5011.9
3482.27
6605.86
3058.45
5005.74
2689.35
3962.01
2250.61
5163.07
1578.12
3482.96
-1133.51
-594.213
-5051.91
-4598
56103.8
-5457.32
26168.3
-1959.3
-4878.94
1499.39
-17436.2
3110.3
-13719.2
3213.97
-12654
2600.15
-10202.3
2302.34
-5965.81
2652.26
-1529.08
3159.3
1465.09
3365.07
2489.56
3396.23
4980.74
3299.54
6702.55
2911.92
5393.36
2513.62
4360.31
2419.69
5257.01
2245.48
3657.17
1824.13
-172.863
-739.752
-4842.12
61493.8
-6018.44
27344.6
-1667.15
-9230.23
2602.17
-21705.5
4448.11
-15565.1
4483.86
-12689.7
3404.75
-9123.21
2460.98
-5022.04
2422.09
-1490.2
3030.67
856.504
3395.67
2124.55
3308.14
5068.26
3076.65
6934.04
2683.26
5786.75
2270.21
4773.36
2261.44
5265.78
2078.96
3839.65
2139.38
-233.287
-796.009
-5075.06
67215.3
-6526.38
28796
-1044.33
-14712.3
4045.15
-26795
6174.13
-17694.1
6300.29
-12815.9
4951.62
-7774.54
3355.14
-3425.56
2539.46
-674.521
2836.14
559.827
3330.57
1630.12
3201.61
5197.22
2829.54
7306.11
2410.33
6205.96
2025.34
5158.35
2007.14
5283.98
2028.9
3817.89
1249.62
545.996
-46.4351
-5260.64
73220.5
-6715.83
30251.1
170.018
-21598.1
5962.42
-32587.4
8339.1
-20070.8
8604.53
-13081.3
7175.2
-6345.22
5071.93
-1322.29
3407.37
990.035
3000.75
966.441
3265.83
1365.03
3052.24
5410.8
2564.15
7794.19
2129.85
6640.26
1798.98
5489.21
1775.2
5307.76
1753.32
3839.77
1495.09
804.224
262.663
-5431.46
79515.7
-6399.67
31219.4
2177.12
-30174.9
8387.91
-38798.2
10870.5
-22553.4
11219.3
-13430.2
9779.9
-4905.77
7233.28
1224.33
4801.58
3421.74
3651.13
2116.89
3343.76
1672.41
2865.57
5888.99
2285.53
8374.24
1867.52
7058.28
1600.1
5756.63
1584.65
5323.21
1551.81
3872.61
1230.37
1125.67
618.754
-5542.76
86012.4
-5550.07
31226.7
4877.93
-40602.9
10943.5
-44863.8
13082.5
-24692.4
13490.8
-13838.5
12162.5
-3577.42
9281.36
4105.43
6276.57
6426.53
4529.44
3864.02
3544.7
2657.14
2660.73
6772.95
2010.75
9024.21
1640.15
7428.88
1432.92
5963.85
1426.46
5329.67
1393.43
3905.63
1045.32
1473.78
986.465
-5918.36
93055
-4470.54
29778.9
7678.24
-52751.7
12200
-49385.5
12868.7
-25361.1
13397.5
-14367.3
13164.7
-3344.68
10846
6424.15
7687.5
9585.06
5432.36
6119.16
3736.48
4353.02
2427.78
8081.66
1750.45
9701.55
1447.83
7731.5
1289.95
6121.74
1286.81
5332.81
1244.82
3947.62
973.759
1744.85
1361.28
-6214.08
100396
-3196.25
26761
9411.48
-65359.4
9896.51
-49870.5
7297.1
-22761.7
7696.83
-14767
10513.5
-6161.37
11143.9
5793.76
8741.44
11987.5
6132.43
8728.17
3812.22
6673.23
2187.02
9706.85
1530.61
10358
1293.87
7968.24
1167.77
6247.83
1161.29
5339.29
1113.99
3994.92
898.661
1960.17
1694.8
-7915.53
109834
-3022.39
21867.9
8951.02
-77332.8
3698.43
-44618
-1624.15
-17439.1
-1103.69
-15287.5
4636.2
-11901.3
9573.27
856.699
9257.33
12303.5
6559.31
11426.2
3683
9549.54
1892.03
11497.8
1314.6
10935.4
1140.57
8142.28
1040.16
6348.24
1031.61
5347.85
986.221
4040.31
773.088
2173.31
1996.51
-7979.81
118884
-2143.82
16031.9
6604.59
-86081.2
-1548.91
-36464.5
-4295.82
-14692.2
-3203.85
-16379.5
814.872
-15920
6359.11
-4687.54
8699.82
9962.75
6522.61
13603.4
3470.7
12601.4
1688.13
13280.4
1185.88
11437.6
1037.76
8290.39
943.116
6442.88
931.128
5359.83
892.965
4078.47
719.739
2346.53
2312.24
-13936.9
135382
-5729.77
7824.79
4330.64
-96141.6
-3185.51
-28948.3
-2162.39
-15715.3
-2433.3
-16108.5
-1464.28
-16889
2925.6
-9077.42
7542.17
5346.18
6051.4
15094.2
2896.98
15755.9
1239.09
14938.3
875.916
11800.8
803.539
8362.77
755.579
6490.84
761.258
5354.16
732.413
4107.32
597.877
2481.07
2549.49
-6606.58
141759
-2674.5
3892.71
2143.58
-100960
-5472.95
-21331.8
-824.159
-20364.1
-1933.13
-14999.6
-1864.2
-16957.9
1113.94
-12055.6
5651.46
808.667
5355.11
15390.5
2940.44
18170.5
1511.02
16367.7
1097.95
12213.9
945.02
8515.7
853.589
6582.27
848.124
5359.62
835.42
4120.02
725.044
2591.44
2830.33
-20861.9
169184
-17122.6
153.428
-2855.42
-115227
-8414.46
-15772.7
-1050.83
-27727.8
-1410.34
-14640.1
-1429.02
-16939.3
219.874
-13704.5
4338.63
-3310.09
3435.9
16293.3
497.97
21108.5
-555.853
17421.5
-489.303
12147.3
-253.095
8279.49
-102.401
6431.58
-10.6489
5267.87
-9.30868
4118.68
-29.4373
2611.57
2474.67
-46362.2
25918.7
-4903.52
-4417.27
-1074.53
-354.155
-451.421
-1524.12
2455.82
8106.98
8131.62
6511.04
5111.27
4134.08
3513.2
3198.36
2982.66
3028.14
-21.338
-540.26
44.3263
-1044.76
99.6496
-1044.83
139.1
-1004.04
172.103
-999.295
198.834
-999.829
219.958
-1000.83
236.095
-1001.33
248.196
-1002.33
257.058
-1003.56
261.076
-1004.63
264.587
-1002.16
249.643
-1005.39
230.277
-1008.77
208.062
-1010.94
183.407
-1013.87
156.814
-1014.96
134.228
-1040.51
109.715
-1083.92
-673.798
47.7466
-588.006
57.4544
-1054.47
46.8304
-1034.21
43.3158
-1000.53
43.8558
-999.835
44.5477
-1000.52
45.1193
-1001.4
45.4223
-1001.64
45.5525
-1002.46
44.9716
-1002.97
44.2452
-1003.91
47.9069
-1005.82
48.3988
-1005.88
46.5299
-1006.9
43.2456
-1007.65
38.3696
-1009
32.962
-1009.55
26.1953
-1033.75
16.3347
-1074.06
-657.463
29.905
-617.912
34.6377
-1059.2
29.6742
-1029.24
29.1364
-999.988
29.2362
-999.935
29.034
-1000.32
28.6915
-1001.06
28.202
-1001.15
27.4654
-1001.73
26.5472
-1002.06
25.1941
-1002.56
22.2166
-1002.84
19.8221
-1003.49
17.2358
-1004.31
14.2425
-1004.66
10.7389
-1005.49
6.74892
-1005.56
2.43257
-1029.43
-1.57691
-1070.05
-659.04
25.184
-643.095
26.6199
-1060.64
21.2084
-1023.83
19.206
-997.985
17.7824
-998.511
16.2851
-998.821
14.7364
-999.506
13.1626
-999.575
11.5438
-1000.11
9.83175
-1000.34
8.07843
-1000.8
6.48943
-1001.25
4.57851
-1001.58
2.4287
-1002.16
0.146877
-1002.38
-2.38307
-1002.96
-5.06714
-1002.88
-9.10901
-1025.39
-11.5254
-1067.63
-670.566
22.9278
-666.023
22.779
-1060.49
17.6831
-1018.73
15.5863
-995.889
13.7804
-996.705
11.8975
-996.938
9.9762
-997.585
8.05468
-997.653
6.09963
-998.154
4.12627
-998.371
2.11362
-998.789
-0.0182495
-999.121
-2.12015
-999.474
-4.29079
-999.991
-6.47237
-1000.2
-8.73126
-1000.7
-11.1243
-1000.49
-15.5259
-1020.99
-17.3141
-1065.85
-687.88
21.7227
-687.746
20.6563
-1059.42
15.8516
-1013.93
13.8136
-993.851
11.9513
-994.842
10.0387
-995.026
8.08438
-995.631
6.13207
-995.701
4.15215
-996.174
2.15559
-996.374
0.141747
-996.775
-1.89141
-997.087
-3.94659
-997.418
-6.06564
-997.871
-8.17671
-998.086
-10.3301
-998.551
-12.5762
-998.241
-17.1573
-1016.41
-19.2292
-1063.77
-707.109
21.2716
-709.017
19.4126
-1057.56
14.8384
-1009.36
12.8482
-991.86
10.967
-992.961
9.04532
-993.104
7.08909
-993.674
5.14186
-993.753
3.17225
-994.204
1.19801
-994.4
-0.787853
-994.789
-2.7988
-995.076
-4.80239
-995.415
-6.84834
-995.825
-8.86947
-996.064
-10.9142
-996.506
-13
-996.155
-17.4187
-1011.99
-19.9719
-1061.22
-727.081
20.9571
-729.974
18.4292
-1055.03
14.1011
-1005.03
12.2166
-989.975
10.3795
-991.124
8.51262
-991.237
6.61094
-991.772
4.71938
-991.861
2.80539
-992.29
0.888956
-992.483
-1.03805
-992.862
-2.98189
-993.132
-4.92125
-993.475
-6.8992
-993.847
-8.84945
-994.114
-10.823
-994.533
-12.793
-994.185
-17.0254
-1007.76
-20.1528
-1058.09
-747.234
20.7644
-750.738
17.5808
-1051.85
13.5028
-1000.95
11.7109
-988.183
9.92363
-989.337
8.11373
-989.427
6.27083
-989.929
4.43931
-990.03
2.58561
-990.436
0.732216
-990.63
-1.13191
-990.998
-3.01009
-991.254
-4.88239
-991.603
-6.78909
-991.941
-8.66681
-992.236
-10.5706
-992.629
-12.4336
-992.322
-16.4294
-1003.76
-20.15
-1054.37
-767.384
20.589
-771.327
16.7713
-1048.03
12.9509
-997.129
11.2547
-986.487
9.52572
-987.608
7.78153
-987.682
6.0048
-988.153
4.23997
-988.265
2.45235
-988.648
0.666712
-988.844
-1.13108
-989.2
-2.94009
-989.445
-4.74516
-989.798
-6.58202
-990.104
-8.39071
-990.427
-10.2302
-990.789
-11.9989
-990.553
-15.7499
-1000.01
-20.0678
-1050.05
-787.451
20.435
-791.762
15.9883
-1043.59
12.4322
-993.573
10.8234
-984.878
9.15412
-985.938
7.47559
-986.004
5.7654
-986.442
4.06731
-986.567
2.34589
-986.927
0.628065
-987.126
-1.10368
-987.468
-2.84384
-987.705
-4.58243
-988.059
-6.34973
-988.336
-8.09061
-988.686
-9.86661
-989.013
-11.5491
-988.87
-15.0464
-996.512
-19.9605
-1045.14
-807.412
20.2873
-812.05
15.217
-1038.51
11.9294
-990.285
10.4027
-983.351
8.79475
-984.33
7.18279
-984.392
5.53993
-984.799
3.90913
-984.936
2.25446
-985.272
0.604765
-985.476
-1.06088
-985.802
-2.73196
-986.034
-4.4048
-986.386
-6.10269
-986.638
-7.77701
-987.012
-9.48987
-987.3
-11.0932
-987.267
-14.3335
-993.271
-19.8422
-1039.63
-827.254
20.1486
-832.198
14.4565
-1032.82
11.4411
-987.27
9.99035
-981.901
8.44491
-982.785
6.89967
-982.847
5.32423
-983.224
3.76061
-983.372
2.17266
-983.684
0.590696
-983.894
-1.00919
-984.202
-2.61141
-984.431
-4.21952
-984.778
-5.84789
-985.01
-7.45694
-985.403
-9.1062
-985.651
-10.6366
-985.737
-13.6181
-990.29
-19.7193
-1033.53
-846.973
20.0196
-852.218
13.7047
-1026.51
10.9642
-984.529
9.58484
-980.521
8.10403
-981.304
6.62677
-981.369
5.11947
-981.717
3.62371
-981.876
2.10331
-982.164
0.589078
-982.38
-0.944629
-982.669
-2.47787
-982.898
-4.0221
-983.234
-5.5804
-983.452
-7.12592
-983.857
-8.71091
-984.066
-10.1744
-984.273
-12.8981
-987.566
-19.589
-1026.84
-866.562
19.9101
-872.128
12.965
-1019.56
10.5011
-982.065
9.18951
-979.21
7.77512
-979.889
6.36724
-979.961
4.92808
-980.277
3.50016
-980.448
2.04779
-980.711
0.600385
-980.932
-0.866755
-981.201
-2.33129
-981.434
-3.81235
-981.753
-5.29911
-981.965
-6.78296
-982.374
-8.30146
-982.547
-9.7033
-982.871
-12.1713
-985.098
-19.4455
-1019.57
-886.008
19.8437
-891.971
12.255
-1011.97
10.0744
-979.885
8.83322
-977.969
7.48965
-978.546
6.15553
-978.627
4.78506
-978.907
3.42353
-979.087
2.03732
-979.325
0.651623
-979.547
-0.753385
-979.796
-2.15608
-980.031
-3.58044
-980.328
-5.0002
-980.545
-6.43095
-980.943
-7.88267
-981.096
-9.23008
-981.524
-11.4474
-982.881
-19.2846
-1011.73
-905.292
19.8668
-911.838
11.6132
-1003.72
9.74419
-978.016
8.60085
-976.825
7.34931
-977.294
6.11111
-977.389
4.82719
-977.623
3.54413
-977.804
2.23387
-978.015
0.913657
-978.226
-0.428792
-978.454
-1.77704
-978.683
-3.15485
-978.95
-4.52483
-979.175
-5.92933
-979.538
-7.33303
-979.692
-8.66725
-980.19
-10.6719
-980.876
-19.037
-1003.36
-924.329
20.0761
-931.914
11.1014
-994.746
9.5892
-976.503
8.60415
-975.84
7.4825
-976.173
6.37079
-976.277
5.20212
-976.454
4.0169
-976.619
2.79913
-976.797
1.55783
-976.985
0.289316
-977.185
-0.997047
-977.396
-2.31821
-977.629
-3.63929
-977.854
-5.02024
-978.157
-6.37927
-978.333
-7.75883
-978.81
-9.5985
-979.036
-18.4199
-994.542
-942.749
20.7985
-952.713
11.0691
-985.016
9.96428
-975.398
9.25118
-975.127
8.3568
-975.278
7.4315
-975.352
6.42326
-975.446
5.35184
-975.547
4.21271
-975.658
3.00858
-975.781
1.74132
-975.918
0.416754
-976.072
-0.967474
-976.245
-2.38503
-976.436
-3.87422
-976.668
-5.32793
-976.879
-6.87843
-977.26
-8.53096
-977.384
-17.5626
-985.51
-960.312
22.2872
12.271
11.8725
11.7456
11.4674
11.1155
10.6695
10.1223
9.46447
8.68344
7.7654
6.69376
5.44886
4.01246
2.34434
0.465196
-1.79436
-4.17805
-14.6882
417.24
-184.668
601.933
-184.619
-184.568
-184.552
-3865.35
3680.8
-3865.35
-3865.35
-3865.35
-9132.9
5267.55
-9132.9
-9132.9
-14798.4
5665.48
-14798.4
-14798.4
-14798.4
-20999.2
6200.79
-20999.2
-20999.2
-28716.4
7717.27
-28117.3
-27395.3
-26736.6
-26139.8
-25552.2
-24925.3
-24233.8
-23472
-29059.7
6404.52
-28175.7
-27227.2
-26211.1
-25122.1
-23949.3
-22673
-21261.2
-19677.6
-17940.9
-16759
484.19
-16105.2
-16105.2
-17281
1175.8
-17282.7
1.71004
-17282.7
-16798.4
-484.264
-16798.4
-15636.3
-1162.06
-13724.6
-1911.71
-13724.6
-11147.9
-2576.7
-11148
-7967.86
-3180.09
-4606.27
-3361.6
-4606.27
-1229.54
-3376.75
1185.46
-2415.01
1185.45
1587.32
-401.888
1587.31
1587.31
1839.35
-1839.36
-1080.56
2919.89
-1246.47
165.893
737.381
-1983.86
699.852
37.504
-867.596
1567.44
-2249.47
1381.87
-3314.78
1065.3
-3936.45
621.658
-4310.87
374.418
-4269.43
-41.4491
-3738.87
-530.563
-2497.78
-1241.1
231.612
-2729.39
4133.15
-3901.54
7769.62
-3636.48
7846.19
-76.5812
2773.07
5073.12
4360.37
2010.15
-3849.51
-280.247
5210.28
-1689.73
1575.37
-469.099
-3204.5
-1008.65
577.035
-3164.79
3723.57
-4905.13
3122.2
-5178.26
1338.43
-5089.65
533.047
-5091.92
376.675
-4890.13
-243.245
-4289.05
-1131.64
-2966.88
-2563.28
-387.879
-5308.39
3439.97
-7729.39
6868.24
-7064.75
8430.64
-1638.99
5556.99
7946.77
9515.47
2099.12
-5948.63
839.731
6469.66
-1353.11
3768.2
-2052.39
-2505.23
-3169.95
1694.59
-4893.33
5446.95
-5716
3944.86
-5395.19
1017.61
-5267.53
405.379
-5378.01
487.152
-5235.92
-385.338
-4694.45
-1673.12
-3451.82
-3805.91
-1045.39
-7714.83
2549.25
-11324
5849.8
-10365.3
7703.96
-3493.15
6430.8
9219.93
13531.3
1766.47
-7715.11
1336.65
6899.47
-1054.1
6158.94
-3208.95
-350.381
-4774.05
3259.69
-5834.34
6507.23
-5789.52
3900.04
-5274.86
502.951
-5240.98
371.49
-5442.58
688.745
-5406.4
-421.52
-4995.42
-2084.11
-3923.07
-4878.25
-1764.7
-9873.2
1522.48
-14611.2
4706.65
-13549.5
6573.38
-5359.89
6253.86
9539.45
16408.4
1214.92
-8930.03
1350.88
6763.51
-619.728
8129.54
-3586.84
2616.72
-5578.92
5251.77
-6129.61
7057.92
-5447.62
3218.04
-4864.34
-80.3284
-4984
491.137
-5343.43
1048.17
-5435.39
-329.559
-5185.06
-2334.44
-4351.79
-5711.53
-2514.35
-11710.6
403.749
-17529.3
3420.63
-16566.4
5256.37
-7195.64
5530.54
9265.28
18577.3
692.392
-9622.43
1114.21
6341.69
-104.761
9348.5
-3368.85
5880.8
-5836.33
7719.25
-5933.42
7155.02
-4726.48
2011.09
-4220.91
-585.903
-4613.06
883.275
-5133.81
1568.92
-5322.04
-141.339
-5245.3
-2411.18
-4721.23
-6235.61
-3272.12
-13159.7
-763.942
-20037.5
2045.83
-19376.1
3855.11
-9004.92
4484.01
8636.37
19881.2
317.459
-9939.89
782.567
5876.58
-78.0081
10209.1
-3329.5
9132.29
-5822.99
10212.7
-5290.29
6622.32
-3704.83
425.621
-3518.25
-772.496
-4205.1
1570.12
-4797.54
2161.36
-5031.87
92.9789
-5160.99
-2282.06
-5028.06
-6368.53
-4025.4
-14162.4
-1935.04
-22127.9
636.424
-21947.6
2405.63
-10774.1
3278.19
7763.81
20582.7
104.558
-10044.5
508.126
5473
-622.115
11339.3
-3766.16
12276.3
-5627.91
12074.5
-4240.85
5235.25
-2632.2
-1183.04
-2928.16
-476.544
-3722.86
2364.81
-4292.93
2731.42
-4550.05
350.099
-4961.95
-1870.17
-5291.26
-6039.23
-4747.28
-14706.4
-3064.75
-23810.4
-775.602
-24236.7
933.935
-12483.7
2010.47
6687.27
20681.5
104.63
-10149.1
289.524
5288.1
-1722.91
13351.8
-4534.38
15087.8
-5223.96
12764.1
-3190.86
3202.15
-1947.47
-2426.43
-2470.58
46.5461
-3125.2
3019.43
-3632.98
3239.2
-3945.24
662.353
-4739.35
-1076.06
-5536.24
-5242.34
-5390.5
-14852.1
-4105.54
-25095.3
-2141.07
-26201.2
-522.598
-14102.1
643.527
5521.14
20162.9
-561.922
-9587.17
-902.928
5629.1
-3306.02
15754.8
-5227.91
17009.7
-4561.36
12097.5
-2232.16
872.936
-1421.01
-3237.58
-1931.47
556.981
-2435.04
3522.99
-2890.8
3694.96
-3366.3
1137.84
-4593.53
151.159
-5734.42
-4101.45
-5869.15
-14717.4
-4991.78
-25972.7
-3397.5
-27795.5
-1920.68
-15579
-634.984
4235.44
19043.7
-2273.53
-7313.64
-3244.03
6599.61
-4881.9
17392.7
-5495.96
17623.7
-3507.9
10109.4
-1075.12
-1559.85
-696.734
-3615.98
-1225.51
1085.74
-1713.69
4011.16
-2166.59
4147.86
-2911.96
1883.2
-4476.84
1716.04
-5730.92
-2847.38
-6036.82
-14411.5
-5637.97
-26371.6
-4490.17
-28943.3
-3052.99
-17016.1
-1579.52
2761.97
17465.9
-3813.57
-3500.08
-5264.49
8050.53
-5904.17
18032.4
-5240.67
16960.2
-2200.15
7068.92
-52.6313
-3707.38
-29.9729
-3638.65
-322.351
1378.09
-999.777
4688.58
-1480.35
4628.42
-2426.86
2829.71
-4091.89
3381.06
-5233.34
-1705.94
-5696.41
-13948.4
-5957.95
-26110
-5419.52
-29481.7
-3983.38
-18452.3
-2593.52
1372.1
16048.2
-4643.12
1143.04
-6296.39
9703.79
-6226.12
17962.1
-4614.56
15348.7
-1431.29
3885.64
253.745
-5392.41
455.579
-3840.49
356.816
1476.84
-330.35
5375.74
-791.977
5090.04
-1743.99
3781.72
-3138.59
4775.66
-3934.77
-909.765
-4703.48
-13179.7
-5913.32
-24900.2
-6197.94
-29197.1
-4564.2
-20086
-2811.51
-380.599
13720.8
-4975.93
6118.96
-6525.91
11253.8
-6013.55
17449.8
-3784.07
13119.2
-1096.71
1198.27
9.10217
-6498.23
547.505
-4378.9
739.471
1284.85
262.748
5852.45
-80.9862
5433.77
-814.101
4514.83
-1529.25
5490.8
-1911.85
-527.196
-3242.86
-11848.7
-5588.06
-22555
-6851.51
-27933.7
-5700.91
-21236.6
-4516.33
-1565.19
15609
-4951.9
11070.9
-6322.16
12624
-5504.49
16632.1
-2812.83
10427.5
-779.033
-835.535
-300.083
-6977.19
419.538
-5098.52
1024.59
679.786
893.99
5983.04
625.895
5701.86
101.012
5039.71
343.346
5248.47
-324.459
140.586
-2043.44
-10129.8
-5244.7
-19353.7
-7322.14
-25856.2
-7504.52
-21054.2
-6989.84
-2079.87
16336.5
-4720.96
15791.8
-5960.75
13863.8
-4875.27
15546.6
-1867.08
7419.33
-437.998
-2264.64
-406.108
-7009.08
300.452
-5805.09
1266.23
-286.017
1652.63
5596.64
1368.56
5985.93
930.464
5477.79
919.605
5259.32
354.125
706.048
-1737.43
-8038.21
-5132.49
-15958.7
-7428.85
-23559.8
-8341.51
-20141.6
-7827.38
-2594
14709.9
-4348.27
20140.1
-5561.35
15076.9
-4250.08
14235.3
-1572.16
4741.4
-580.64
-3256.16
-381.687
-7208.04
352.273
-6539.05
1447.01
-1380.76
2321.61
4722.04
2182.93
6124.61
1783.15
5877.57
1581.93
5460.55
635.9
1652.07
-1889.84
-5512.46
-5171
-12677.5
-7285.48
-21445.4
-8397.53
-19029.5
-7937.17
-3054.35
12438.2
-3815.15
23955.2
-5147.78
16409.5
-3695.71
12783.3
-1519.27
2564.95
-806.304
-3969.14
-301.069
-7713.28
432.107
-7272.23
1484.16
-2432.82
2638.59
3567.59
2887.63
5875.57
2655.24
6109.95
2304.22
5811.57
1126.28
2830
-1614.93
-2771.26
-4926.17
-9366.27
-6984.39
-19387.2
-7990.88
-18023
-7665.61
-3379.62
10040.1
-3179.58
27134.8
-4739.88
17969.8
-3246.87
11290.2
-1328.73
646.808
-767.395
-4530.47
-142.866
-8337.81
562.722
-7977.82
1431.93
-3302.03
2604.63
2394.89
3274.79
5205.4
3364.74
6020
2992.68
6183.63
1900.76
3921.92
-535.451
-335.05
-3910.97
-5990.76
-6502.56
-16795.6
-7255.31
-17270.3
-6571.84
-4063.09
7149.11
-2627.39
-4382.18
-2880.35
-1014.89
-492.47
130.744
777.52
1416.97
2405.05
3310.39
3748.52
3506.82
2638.55
1040.97
-2024.4
-5766.36
-6847.24
-5131.4
-675.632
1650.63
-1094.35
1393.72
-1522.11
1402.76
-1863.87
1316.75
-2165.62
1276.75
-2415.81
1225.19
-2622.6
1181.79
-2785.58
1137.98
-2906.67
1096.09
-2986.3
1054.63
-3024.57
1013.26
-3020.27
970.706
-2971
925.73
-2872.78
876.779
-2718.34
820.554
-2492.9
749.56
-2163.27
645.37
-1662.45
474.175
-923.933
236.487
51.0667
-185.722
1836.35
-416.488
1624.48
-661.635
1647.9
-861.272
1516.39
-1050.55
1466.02
-1204.43
1379.07
-1333.46
1310.82
-1432.73
1237.25
-1505.58
1168.93
-1552.15
1101.2
-1573.34
1034.45
-1567.96
965.318
-1533.5
891.275
-1466.9
810.174
-1364.43
718.084
-1215.17
600.298
-995.585
425.784
-684.192
162.781
-327.159
-120.548
-276.093
-124.323
1960.67
-282.611
1782.77
-400.21
1765.5
-481.521
1597.7
-551.973
1536.47
-593.754
1420.85
-622.75
1339.81
-633.96
1248.46
-631.597
1166.57
-611.032
1080.63
-565.728
989.145
-488.372
887.96
-379.539
782.439
-246.381
677.013
-93.8487
565.548
73.5997
432.846
235.269
264.11
301.957
96.0887
298.779
-117.374
22.6865
-42.0451
2002.71
-107.389
1848.11
-156.357
1814.47
-203.61
1644.95
-251.902
1584.77
-294.638
1463.58
-341.867
1387.04
-389.183
1295.77
-438.772
1216.16
-480.654
1122.51
-498.438
1006.93
-472.502
862.023
-399.589
709.525
-293.54
570.963
-162.703
434.707
-7.53617
277.675
144.953
111.614
202.813
38.2206
196.717
-111.284
219.404
-43.8181
2046.53
-121.139
1925.43
-183.516
1876.84
-251.377
1712.81
-323.552
1656.94
-395.104
1535.13
-475.289
1467.22
-557.563
1378.04
-647.135
1305.73
-737.537
1212.91
-822.684
1092.07
-886.613
925.95
-915.075
737.984
-904.354
560.24
-859.468
389.818
-782.863
201.068
-702.562
31.3113
-537.521
-126.824
-393.53
-255.278
-174.126
40.5245
2006
-45.7258
2011.68
-78.899
1910.02
-107.234
1741.14
-132.253
1681.96
-152.355
1555.23
-168.464
1483.33
-177.212
1386.79
-180.709
1309.22
-182.706
1214.91
-193.709
1103.07
-222.59
954.83
-263.643
779.036
-298.893
595.489
-321.832
412.755
-341.402
220.636
-358.95
48.8564
-377.969
-107.807
-319.958
-313.29
-494.084
167.208
1838.79
120.107
2058.78
137.645
1892.48
173.172
1705.61
222.479
1632.65
272.471
1505.24
335.07
1420.73
404.501
1317.36
485.511
1228.21
568.688
1131.73
642.005
1029.76
683.57
913.263
680.475
782.13
635.977
639.985
556.193
492.537
437.827
339
304.729
181.951
201.796
-4.87642
72.6648
-184.162
-421.42
202.658
1636.14
204.985
2056.45
234.84
1862.62
286.689
1653.76
355.593
1563.74
420.07
1440.77
492.866
1347.93
567.312
1242.91
648.773
1146.75
731.372
1049.13
809.224
951.903
869.768
852.719
900.863
751.036
894.529
646.318
847.846
539.221
758.428
428.417
626.058
314.321
437.274
183.906
218.719
34.3924
-202.701
154.668
1481.47
191.354
2019.76
225.249
1828.72
273.948
1605.06
336.936
1500.75
395.935
1381.76
458
1285.87
518.478
1182.43
579.193
1086.03
636.324
991.999
686.957
901.269
726.548
813.126
750.76
726.822
755.165
641.912
735.368
559.015
683.775
480.008
589.416
408.679
436.266
337.054
224.806
245.849
22.105
72.1453
1409.32
122.674
1969.24
173.046
1778.35
228.152
1549.96
290.651
1438.25
354.98
1317.44
421.056
1219.79
488.42
1115.07
556.304
1018.15
625.269
923.035
694.86
831.677
764.747
743.24
832.459
659.11
889.9
584.472
919.993
528.921
895.42
504.581
790.886
513.211
590.583
537.356
312.581
523.85
334.686
-28.3798
1437.7
31.5864
1909.27
96.4082
1713.53
135.759
1510.61
167.752
1406.26
193.706
1291.48
221.023
1192.47
260.153
1075.94
320.237
958.062
408.998
834.273
528.807
711.867
677.761
594.286
842.618
494.251
994.448
432.643
1087.95
435.415
1074.57
517.969
926.936
660.841
656.506
807.785
323.749
856.606
658.435
-172.83
1610.53
-198.674
1935.12
-213.487
1728.35
-286.765
1583.89
-386.728
1506.23
-506.139
1410.89
-624.771
1311.11
-726.85
1178.02
-799.587
1030.8
-839.57
874.259
-846.21
718.51
-818.236
566.314
-754.529
430.547
-653.644
331.761
-514.196
295.97
-337.764
341.54
-147.974
471.053
-0.467242
660.281
41.0417
815.1
699.477
-73.3011
1683.84
-226.822
2088.64
-381.209
1882.73
-533.487
1736.16
-699.443
1672.18
-882.731
1594.18
-1074.17
1502.54
-1266.23
1370.09
-1454.32
1218.88
-1637.94
1057.88
-1817.01
897.58
-1984.84
734.142
-2123.15
568.864
-2197.81
406.414
-2159.83
257.988
-1962.42
144.135
-1585.81
94.4401
-1041.11
115.58
-424.257
198.253
275.221
315.128
1368.71
306.285
2097.48
124.696
2064.33
-30.1631
1891.03
-137.96
1779.98
-229.442
1685.67
-320.629
1593.73
-423.377
1472.84
-538.305
1333.82
-662.091
1181.67
-790.909
1026.4
-923.124
866.36
-1055.56
701.308
-1180.07
530.918
-1280.18
358.108
-1327.36
191.32
-1278.03
45.1118
-1062.21
-100.238
-610.938
-253.017
-335.718
584.215
784.497
839.164
1842.53
775.718
2127.77
674.721
1992.02
642.083
1812.62
654.194
1673.56
682.979
1564.95
701.922
1453.9
701.79
1333.95
680.037
1203.43
639.37
1067.07
579.106
926.625
497.052
783.364
390.971
637.001
261.469
487.613
121.149
331.645
1.76475
164.506
-45.6139
-52.8489
-100.426
-198.2
-436.143
403.649
380.851
567.139
1679.04
578.007
2116.91
575.047
1994.99
607.209
1780.46
668.862
1611.91
745.281
1488.53
820.073
1379.11
883.888
1270.14
931.153
1156.16
960.268
1037.96
969.605
917.291
956.828
796.143
918.534
675.296
850.513
555.636
747.9
434.26
602.442
309.965
381.131
168.464
185.719
-2.78516
-250.424
3.23507
377.619
-35.1186
1717.4
6.23717
2075.55
83.1026
1918.12
165.138
1698.43
249.843
1527.2
336.172
1402.2
419.621
1295.66
495.076
1194.68
558.141
1093.1
605.62
990.479
635.115
887.798
644.433
786.826
631.665
688.066
595.594
591.709
535.294
494.562
448.671
396.589
329.374
287.764
169.046
157.546
-81.3775
-171.748
549.369
-236.149
1781.8
-154.573
1993.98
-44.0235
1807.57
56.8757
1597.53
149.287
1434.79
237.288
1314.2
319.815
1213.14
393.686
1120.81
455.41
1031.38
502.215
943.675
531.911
858.104
544.646
774.093
541.927
690.786
525.476
608.162
493.432
526.607
436.743
453.279
338.427
386.08
177.374
318.601
95.9967
-68.3848
617.755
-106.518
1819.93
-51.0703
1938.53
17.251
1739.25
85.0333
1529.75
151.443
1368.38
217.97
1247.68
282.144
1148.96
342.029
1060.93
396.692
976.718
445.19
895.178
490.374
812.921
532.936
731.532
572.057
651.666
604.201
576.018
614.101
516.707
574.869
492.511
453.709
507.24
248.623
523.685
344.62
-36.0334
117.785
319.549
475.258
593.179
685.309
760.18
820.104
864.989
893.213
904.308
900.423
870.169
830.391
779.432
708.592
604.284
452.816
254.496
)
;

boundaryField
{
    outletWallLeft
    {
        type            calculated;
        value           nonuniform List<scalar> 
40
(
22.5932
-52.5857
-130.109
-208.626
-288.598
-371.027
-457.781
-547.853
-646.444
-744.595
-863.755
-953.88
-1124.24
-1126.59
-1523.29
-1069.59
-2561.19
229.492
-6562.59
8290.22
3394.09
1917.78
2566.09
4334.39
5582.7
7052.46
9256.69
13547.1
19042.1
21083.8
10642.1
-7290.03
-12631.8
-16842
-15360.4
-31070.5
-16259
-84404.7
-72127.4
207255
)
;
    }
    fineWallsLeft
    {
        type            calculated;
        value           uniform 0;
    }
    fineFrontAndBackLeft
    {
        type            calculated;
        value           nonuniform List<scalar> 
880
(
2.94391e-15
1.39237e-15
-1.24554e-15
7.36433e-15
8.14711e-14
-1.39041e-13
-7.4567e-14
-2.66766e-13
-3.86093e-13
-1.32196e-13
-4.79871e-13
-1.65355e-13
-5.54686e-13
-7.09715e-13
-2.19423e-13
-7.67883e-13
-2.37349e-13
-6.59458e-13
-6.979e-13
-1.48331e-13
-3.43793e-14
1.1718e-12
-4.30214e-13
-5.08503e-13
-5.21162e-13
-6.91994e-13
-6.97315e-13
-6.83447e-13
-7.06365e-13
-7.11807e-13
-7.69625e-13
-6.10362e-12
-8.00754e-13
-8.56353e-13
-8.56074e-13
-8.63303e-13
-8.76282e-13
-9.05333e-13
-8.4464e-13
-1.01636e-12
-1.13482e-11
-1.56188e-12
-1.46994e-12
-8.83216e-12
-1.33496e-12
-1.30789e-12
-1.28758e-12
-6.86998e-12
-8.25269e-13
-1.15009e-12
5.94906e-12
9.30196e-12
6.79558e-12
5.84943e-12
1.88044e-11
2.27704e-12
2.61778e-12
2.43268e-12
1.40573e-11
2.10649e-12
1.15431e-11
-6.30747e-12
-9.31029e-12
-7.83488e-12
-1.07736e-11
-1.12711e-11
-9.38195e-12
-6.30588e-12
-2.25227e-12
-1.5398e-12
-6.0008e-12
-8.80256e-12
-1.09335e-11
-1.19225e-11
-9.93449e-12
-9.8759e-12
-1.44557e-11
-1.48423e-12
1.31185e-11
1.16051e-11
-6.3848e-12
-9.50753e-12
-8.44448e-12
-8.902e-12
-1.02912e-11
-1.0447e-11
-8.44011e-12
-5.94207e-12
-2.13289e-12
-4.3408e-12
-8.08687e-12
-1.04518e-11
-1.12592e-11
-1.0649e-11
-8.15817e-12
-1.5861e-11
-1.29389e-11
8.00063e-12
9.31427e-12
-7.0598e-12
-9.16834e-12
-6.11514e-12
-4.94039e-12
-6.97124e-12
-9.33934e-12
-9.45825e-12
-8.28245e-12
-3.5399e-12
-3.36065e-12
-7.22189e-12
-9.90242e-12
-1.05537e-11
-1.03312e-11
-7.79857e-12
-1.2718e-11
-1.74973e-11
-1.11814e-11
5.90675e-12
-8.0084e-12
-8.05034e-12
-2.43778e-12
-1.79219e-13
-2.02802e-12
-6.00858e-12
-8.55155e-12
-9.33706e-12
-5.31242e-12
-3.12778e-12
-6.40318e-12
-9.35997e-12
-1.00342e-11
-9.73391e-12
-7.61183e-12
-9.75092e-12
-1.38825e-11
-1.59671e-11
2.64237e-12
-8.91061e-12
-6.24689e-12
2.88889e-14
3.61387e-12
3.11225e-12
-1.2836e-12
-5.69517e-12
-8.61878e-12
-6.95181e-12
-3.65452e-12
-5.76069e-12
-8.85989e-12
-9.67913e-12
-9.16098e-12
-7.02932e-12
-6.62117e-12
-8.65204e-12
-1.4357e-11
2.89989e-13
-9.61844e-12
-4.16886e-12
-5.58619e-13
4.54728e-12
6.6172e-12
3.33019e-12
-1.76514e-12
-6.04743e-12
-7.72692e-12
-4.72244e-12
-5.38502e-12
-8.3666e-12
-9.31974e-12
-8.54159e-12
-6.23573e-12
-4.61537e-12
-2.16005e-12
-9.47555e-12
-8.65687e-13
-1.01562e-11
-3.7691e-12
-4.37584e-12
1.69838e-12
6.84969e-12
6.17359e-12
1.88337e-12
-2.53022e-12
-7.12851e-12
-5.8156e-12
-5.34777e-12
-7.868e-12
-8.79855e-12