/*--------------------------------*- C++ -*----------------------------------*\
| =========                 |                                                 |
| \\      /  F ield         | OpenFOAM: The Open Source CFD Toolbox           |
|  \\    /   O peration     | Version:  4.1                                   |
|   \\  /    A nd           | Web:      www.OpenFOAM.org                      |
|    \\/     M anipulation  |                                                 |
\*---------------------------------------------------------------------------*/
FoamFile
{
    version     2.0;
    format      ascii;
    class       volVectorField;
    location    "15";
    object      U;
}
// * * * * * * * * * * * * * * * * * * * * * * * * * * * * * * * * * * * * * //

dimensions      [0 1 -1 0 0 0 0];

internalField   nonuniform List<vector> 
1680
(
(8.10158e-19 -4.39503 -6.53371)
(1.00623e-18 0.969024 -4.53323)
(-3.42771e-19 0.576246 -1.5454)
(5.32201e-18 0.122662 -0.467665)
(2.21963e-16 0.149768 -0.464474)
(-3.82638e-17 0.413836 -0.435179)
(-5.38876e-17 0.447658 -0.246098)
(-7.34133e-17 0.457017 -0.333383)
(-1.06252e-16 0.706426 -0.480155)
(-9.43245e-17 0.670127 -0.278755)
(-1.32059e-16 0.922285 -0.507949)
(-1.19497e-16 0.888562 -0.338139)
(-1.52648e-16 1.02316 -0.502113)
(-1.95312e-16 1.33484 -0.715109)
(-1.58401e-16 1.249 -0.432062)
(-2.1132e-16 1.57942 -0.822195)
(-1.71526e-16 1.73337 -0.481231)
(-1.81481e-16 1.16324 -1.08038)
(-1.9206e-16 3.97855 -0.392121)
(-1.07195e-16 0.165709 -2.96507)
(-1.41043e-16 2.83793 2.16484)
(4.69896e-16 1.22928 -1.56813)
(-1.76498e-15 3.90347 6.26992)
(-2.08617e-15 4.4373 7.26753)
(-2.1381e-15 4.61794 8.15983)
(-2.83895e-15 4.74182 8.94704)
(-2.86078e-15 4.9018 9.63637)
(-2.80389e-15 4.96783 10.2279)
(-2.89791e-15 5.13289 10.7756)
(-2.92023e-15 5.0348 11.1657)
(-3.15744e-15 5.45022 11.8161)
(-2.44757e-15 4.82464 9.85333)
(-3.28514e-15 6.93301 13.4914)
(-3.51324e-15 7.0669 13.8747)
(-3.5121e-15 7.13092 14.1737)
(-3.54176e-15 7.11976 14.4312)
(-3.595e-15 7.24219 14.6856)
(-3.71419e-15 7.08227 14.8)
(-3.46519e-15 7.44827 15.629)
(-4.16967e-15 7.0827 14.326)
(-3.95062e-15 9.70924 15.8878)
(-2.50905e-15 6.69722 11.3483)
(-2.36134e-15 5.7737 10.6923)
(-3.07473e-15 6.04509 13.6459)
(-2.14452e-15 4.262 9.60327)
(-2.10103e-15 3.96717 9.4178)
(-2.0684e-15 3.24866 9.2172)
(-2.39164e-15 2.66917 10.4736)
(-1.32573e-15 1.60082 6.57603)
(-1.84754e-15 1.45024 6.76646)
(2.07104e-15 0.0956033 3.72539)
(1.49429e-14 -0.405248 -5.51699)
(1.09166e-14 -0.134249 -4.67399)
(9.39668e-15 0.137231 -5.24808)
(6.54635e-15 0.0829388 -5.56514)
(3.6579e-15 -0.158916 -2.28691)
(4.20526e-15 0.0407049 -2.60224)
(3.90792e-15 0.0516226 -2.57339)
(4.89374e-15 -0.180603 -3.27069)
(3.38392e-15 0.139209 -2.68549)
(2.56512e-15 -10.3248 0.993908)
(-1.40166e-15 -6.87531 7.22041)
(-2.06895e-15 -3.02003 6.50867)
(-1.74108e-15 0.719402 2.21865)
(-2.39414e-15 1.77424 0.677061)
(-2.50469e-15 3.08745 -0.293669)
(-2.08488e-15 2.97684 -1.41682)
(-1.40131e-15 1.40545 -2.20935)
(-5.00504e-16 -0.329566 -3.08943)
(-3.42179e-16 -1.27726 -4.58068)
(-1.33351e-15 -1.76046 -5.95347)
(-1.95612e-15 -2.16946 -6.76142)
(-2.42966e-15 -1.73024 -5.80841)
(-2.64944e-15 -0.596463 -4.44676)
(-2.20766e-15 0.434063 -3.08963)
(-2.19464e-15 3.6005 3.3191)
(-3.21239e-15 5.15656 12.7031)
(-3.29828e-16 2.47161 11.1954)
(2.91522e-15 -0.374135 2.65864)
(2.57892e-15 -11.148 1.6943)
(-1.41884e-15 -7.40026 7.17779)
(-2.11278e-15 -2.53143 6.20968)
(-1.87655e-15 1.31905 2.34889)
(-1.97822e-15 2.05674 0.205646)
(-2.28694e-15 3.29352 -1.01825)
(-2.32157e-15 3.15539 -2.04773)
(-1.87558e-15 1.57399 -2.75972)
(-1.32046e-15 -0.11726 -3.64562)
(-4.73975e-16 -1.03497 -4.38281)
(-9.64622e-16 -1.52045 -5.63119)
(-1.79708e-15 -2.13796 -6.7089)
(-2.32263e-15 -1.94231 -6.19831)
(-2.50205e-15 -0.837369 -4.98639)
(-2.36644e-15 -0.0815039 -3.82447)
(-1.81293e-15 1.95236 0.585633)
(-3.52468e-15 3.96574 11.8498)
(-2.87531e-15 3.33208 14.4165)
(1.77792e-15 2.22759 7.34899)
(2.06984e-15 -12.1379 2.8989)
(-1.56884e-15 -7.78026 7.38365)
(-2.03741e-15 -2.03571 6.08171)
(-1.35892e-15 1.94499 2.34488)
(-1.09786e-15 2.43184 -0.177229)
(-1.54916e-15 3.5258 -1.67209)
(-2.07541e-15 3.32455 -2.66264)
(-2.10183e-15 1.72646 -3.342)
(-1.84054e-15 0.0239427 -4.12246)
(-7.86646e-16 -0.890819 -4.40901)
(-7.46812e-16 -1.29405 -5.31132)
(-1.60486e-15 -2.04362 -6.46159)
(-2.20054e-15 -2.09059 -6.37397)
(-2.34527e-15 -1.06661 -5.40761)
(-2.29581e-15 -0.576102 -4.28914)
(-1.73302e-15 0.517328 -1.06456)
(-2.82623e-15 2.38362 9.68677)
(-3.88828e-15 3.38925 14.5843)
(-2.48475e-15 3.63923 12.1284)
(1.31261e-15 -13.3283 4.00813)
(-1.77964e-15 -8.01856 7.77799)
(-1.78896e-15 -1.49771 6.12034)
(-5.41729e-16 2.59116 2.11432)
(-3.98264e-17 2.85606 -0.706311)
(-4.50671e-16 3.77773 -2.30032)
(-1.33524e-15 3.48923 -3.15167)
(-1.90034e-15 1.86542 -3.78945)
(-2.0749e-15 0.12209 -4.49434)
(-1.18054e-15 -0.811755 -4.62015)
(-6.95061e-16 -1.11059 -5.12347)
(-1.42293e-15 -1.91451 -6.14754)
(-2.07999e-15 -2.16851 -6.37097)
(-2.22982e-15 -1.26976 -5.69721)
(-2.16309e-15 -0.931754 -4.50635)
(-1.69152e-15 -0.726602 -3.14937)
(-2.16687e-15 0.858616 6.27285)
(-3.085e-15 2.85945 11.817)
(-3.54824e-15 4.37044 14.0211)
(5.87193e-16 -14.6911 4.63611)
(-1.98013e-15 -8.17259 8.37565)
(-1.3882e-15 -0.874526 6.32893)
(6.41975e-18 3.31281 1.58292)
(8.03081e-16 3.30678 -1.56857)
(6.91612e-16 4.00248 -3.06584)
(-2.85244e-16 3.62234 -3.50911)
(-1.26559e-15 1.99516 -3.94634)
(-1.91528e-15 0.211314 -4.64692)
(-1.54485e-15 -0.771213 -4.91131)
(-8.12116e-16 -0.989466 -5.13726)
(-1.28015e-15 -1.78482 -5.85597)
(-1.96886e-15 -2.1932 -6.22277)
(-2.15092e-15 -1.44766 -5.78995)
(-2.03577e-15 -1.13259 -4.5874)
(-1.56207e-15 -1.41751 -4.3997)
(-1.47137e-15 -0.626687 0.378817)
(-1.92267e-15 1.73162 5.34773)
(-3.19045e-15 4.17546 11.7392)
(6.4442e-17 -16.2038 4.68822)
(-2.13743e-15 -8.32304 9.25217)
(-9.26414e-16 -0.0490586 6.74312)
(-1.24138e-16 4.15033 0.723609)
(1.01051e-15 3.78013 -2.81988)
(1.47049e-15 4.152 -4.18058)
(7.40042e-16 3.6634 -3.94296)
(-3.92254e-16 2.09097 -3.82796)
(-1.34387e-15 0.327128 -4.41162)
(-1.71709e-15 -0.717151 -5.08678)
(-1.04943e-15 -0.923345 -5.33736)
(-1.19667e-15 -1.69002 -5.66634)
(-1.85924e-15 -2.19481 -5.97435)
(-2.07105e-15 -1.59973 -5.66074)
(-1.89813e-15 -1.25512 -4.56575)
(-1.38572e-15 -1.69531 -4.48354)
(-1.02564e-15 -1.24211 -2.82228)
(-4.8001e-16 0.358476 -2.29943)
(-2.10568e-15 3.36786 5.54556)
(-1.92375e-16 -17.8212 4.23132)
(-2.25692e-15 -8.54795 10.4838)
(-8.37577e-16 1.02223 7.32256)
(-9.72409e-16 5.16837 -0.436317)
(3.77418e-16 4.28609 -4.48636)
(1.52215e-15 4.21262 -5.83895)
(1.37191e-15 3.54628 -4.88505)
(4.18528e-16 2.08326 -3.81595)
(-5.62271e-16 0.464542 -3.87224)
(-1.58411e-15 -0.593716 -4.94462)
(-1.29235e-15 -0.873125 -5.57834)
(-1.18839e-15 -1.65171 -5.61425)
(-1.74844e-15 -2.20707 -5.67689)
(-1.95523e-15 -1.73135 -5.34982)
(-1.71577e-15 -1.38198 -4.38232)
(-1.1673e-15 -1.75085 -4.05481)
(-6.68233e-16 -1.21251 -3.88582)
(-3.06983e-16 0.0436004 -3.4273)
(-9.85207e-17 -0.121173 -3.14631)
(-1.87179e-16 -19.5875 3.37655)
(-2.39842e-15 -8.88213 12.0561)
(-1.58234e-15 2.27873 7.73709)
(-2.25993e-15 6.44922 -1.93987)
(-9.71848e-16 4.85241 -6.63578)
(6.88335e-16 4.21889 -8.16301)
(1.32641e-15 3.24989 -6.78406)
(9.02421e-16 1.88345 -4.61001)
(1.32265e-16 0.546779 -3.60569)
(-1.12087e-15 -0.385847 -4.44945)
(-1.38324e-15 -0.787179 -5.643)
(-1.24191e-15 -1.6697 -5.64158)
(-1.64969e-15 -2.25981 -5.36261)
(-1.79219e-15 -1.85946 -4.92084)
(-1.47747e-15 -1.52147 -4.04453)
(-9.12781e-16 -1.75313 -3.56585)
(-4.16157e-16 -1.23901 -3.88186)
(-1.17354e-16 0.0780743 -2.87532)
(-4.94996e-17 0.421585 -5.17636)
(3.0729e-17 -21.3824 2.2164)
(-2.61058e-15 -9.33344 13.8943)
(-2.74353e-15 3.88956 7.63678)
(-3.54807e-15 8.01518 -3.96927)
(-2.64766e-15 5.51396 -9.38457)
(-8.92733e-16 4.23506 -11.1926)
(4.74137e-16 2.82431 -9.79355)
(8.61188e-16 1.45187 -6.76981)
(5.42357e-16 0.424415 -4.4348)
(-3.6493e-16 -0.186242 -4.0113)
(-1.16948e-15 -0.621501 -5.42952)
(-1.2974e-15 -1.70515 -5.62675)
(-1.57268e-15 -2.35998 -5.02848)
(-1.58974e-15 -1.99393 -4.43086)
(-1.19804e-15 -1.65669 -3.62093)
(-6.5069e-16 -1.75522 -3.16442)
(-2.38541e-16 -1.29269 -3.44993)
(-4.51141e-17 -0.0253204 -3.17046)
(7.40972e-17 0.106021 -1.26795)
(3.8181e-16 -23.4678 0.862914)
(-2.86151e-15 -9.82154 15.7831)
(-3.50066e-15 5.95451 6.38765)
(-4.31948e-15 9.8469 -6.80099)
(-4.11524e-15 6.27403 -12.9009)
(-2.80144e-15 4.30346 -14.9318)
(-1.09756e-15 2.35136 -13.7117)
(1.27869e-16 0.822705 -10.2778)
(5.33997e-16 0.0026287 -6.65879)
(2.76353e-16 -0.204423 -4.67583)
(-7.06904e-16 -0.485882 -5.31945)
(-1.30043e-15 -1.76781 -5.51039)
(-1.50383e-15 -2.51012 -4.65052)
(-1.35866e-15 -2.14102 -3.9244)
(-9.05876e-16 -1.77976 -3.18941)
(-4.1607e-16 -1.7663 -2.83251)
(-1.11581e-16 -1.27643 -3.02983)
(4.4123e-19 -0.259728 -2.70313)
(7.66744e-17 -0.0519073 -2.67174)
(7.71223e-16 -25.2294 -0.60747)
(-3.05466e-15 -10.2947 17.6959)
(-3.18699e-15 8.47163 3.45666)
(-4.06835e-15 11.8618 -10.5979)
(-4.77516e-15 7.10596 -17.1398)
(-4.40469e-15 4.4138 -19.1879)
(-3.00632e-15 1.87809 -18.1387)
(-1.2753e-15 0.0388087 -14.5486)
(6.14841e-18 -0.67664 -9.58342)
(3.96177e-16 -0.408003 -6.40791)
(-3.07549e-16 -0.386084 -5.76031)
(-1.25778e-15 -1.83478 -5.32902)
(-1.41217e-15 -2.6812 -4.21098)
(-1.10633e-15 -2.28003 -3.4354)
(-6.30695e-16 -1.87442 -2.80176)
(-2.31688e-16 -1.76906 -2.55077)
(-2.86407e-17 -1.28167 -2.68995)
(2.33442e-17 -0.308781 -2.39136)
(8.1492e-17 -0.136404 -1.98614)
(1.12264e-15 -28.0172 -2.00197)
(-3.1002e-15 -10.4504 19.3814)
(-1.66675e-15 11.6418 -1.04969)
(-2.54148e-15 13.9785 -15.1181)
(-4.11389e-15 7.9481 -21.0828)
(-4.96557e-15 4.54923 -22.6933)
(-4.57773e-15 1.40024 -22.1624)
(-2.83392e-15 -0.848782 -18.4742)
(-8.11739e-16 -1.58872 -12.4758)
(1.95993e-16 -1.03407 -8.45723)
(-1.21543e-16 -0.786223 -6.63501)
(-1.19186e-15 -2.11782 -5.12428)
(-1.27068e-15 -2.9096 -3.73378)
(-8.43621e-16 -2.42825 -2.99689)
(-3.95968e-16 -1.96528 -2.48108)
(-1.03932e-16 -1.78208 -2.30927)
(1.52935e-17 -1.30342 -2.41497)
(2.78955e-17 -0.440293 -2.15739)
(7.10539e-17 -0.271298 -1.50525)
(1.37313e-15 -28.7785 -3.36645)
(-2.98333e-15 -10.3842 21.6807)
(5.71483e-16 15.5006 -6.81119)
(-5.11083e-17 15.9515 -18.706)
(-2.13367e-15 8.63299 -21.6235)
(-3.96568e-15 4.76779 -21.5427)
(-4.99733e-15 1.0833 -22.9402)
(-3.99205e-15 -1.81685 -21.0443)
(-1.71143e-15 -2.63472 -15.1204)
(-2.06624e-16 -1.44987 -10.5381)
(-1.49144e-16 -0.900778 -7.55557)
(-1.10629e-15 -2.35505 -4.84172)
(-1.06958e-15 -3.08453 -3.24363)
(-5.89396e-16 -2.5054 -2.61889)
(-2.15467e-16 -1.99556 -2.21721)
(-2.71612e-17 -1.75956 -2.09232)
(3.05164e-17 -1.29392 -2.17548)
(2.17248e-17 -0.529925 -1.91637)
(5.40244e-17 -0.368617 -1.47134)
(1.51485e-15 -34.5119 -4.24759)
(-2.77894e-15 -9.39218 23.5943)
(2.64443e-15 19.5473 -13.025)
(2.2408e-15 17.016 -18.2386)
(8.90348e-17 8.44421 -14.3513)
(-1.78014e-15 4.86099 -10.4071)
(-3.68308e-15 1.28326 -14.9541)
(-4.38892e-15 -2.26985 -20.205)
(-2.516e-15 -3.70636 -16.954)
(-6.97731e-16 -2.73552 -12.2497)
(-2.88818e-16 -2.17501 -8.16495)
(-9.821e-16 -3.12301 -4.4777)
(-8.25089e-16 -3.4321 -2.80951)
(-3.68023e-16 -2.6808 -2.31983)
(-9.28717e-17 -2.11117 -2.00276)
(1.04655e-17 -1.81667 -1.89626)
(2.93386e-17 -1.35746 -1.95989)
(1.25807e-17 -0.654452 -1.70743)
(4.1549e-17 -0.550253 -1.38546)
(1.56422e-15 -29.6713 -5.35432)
(-2.37839e-15 -8.84394 29.2166)
(3.8728e-15 23.8186 -18.5585)
(2.95738e-15 16.1928 -11.1794)
(9.06614e-16 6.55711 -0.651749)
(2.78225e-17 4.82341 5.37863)
(-1.26689e-15 2.80325 -1.18774)
(-3.78363e-15 -1.64173 -14.4784)
(-3.0238e-15 -4.20447 -17.3873)
(-1.1664e-15 -2.85479 -13.5569)
(-4.31103e-16 -1.96337 -8.27967)
(-8.05234e-16 -3.13849 -3.93068)
(-5.72794e-16 -3.34451 -2.38124)
(-1.98965e-16 -2.53854 -2.02901)
(-2.24118e-17 -1.98238 -1.78105)
(2.24619e-17 -1.68609 -1.68922)
(2.17171e-17 -1.25911 -1.7395)
(5.35464e-18 -0.608712 -1.51322)
(3.21445e-17 -0.526624 -1.12456)
(1.33312e-15 -49.8706 -4.37726)
(-2.12457e-15 -5.13007 29.6237)
(4.20919e-15 28.3557 -22.4044)
(1.93695e-15 13.6527 0.344688)
(3.94014e-16 5.15253 5.39218)
(4.2366e-16 5.48027 8.30655)
(-3.00228e-17 5.04182 2.7389)
(-2.31147e-15 0.906592 -5.65718)
(-3.01818e-15 -3.96438 -15.3897)
(-1.44456e-15 -5.16424 -13.7389)
(-4.8724e-16 -5.07397 -7.98511)
(-5.84799e-16 -5.00338 -3.50149)
(-3.52928e-16 -4.2457 -2.13198)
(-8.99942e-17 -3.09857 -1.84879)
(8.33282e-18 -2.4116 -1.61913)
(2.08745e-17 -2.0089 -1.52617)
(1.3645e-17 -1.54285 -1.57137)
(1.18385e-18 -0.934039 -1.37718)
(2.3816e-17 -0.90789 -1.06279)
(2.05387e-15 -15.6086 -8.3616)
(-8.01838e-16 -7.90401 47.6813)
(4.11764e-15 30.1532 -24.6837)
(5.93466e-16 10.9305 10.2888)
(2.03189e-17 4.68297 0.794863)
(1.9079e-16 5.50633 5.8676)
(2.01084e-16 5.58058 2.54954)
(-4.70578e-16 2.47062 2.23771)
(-2.44396e-15 -2.74324 -11.9831)
(-1.45522e-15 -3.04583 -13.1659)
(-4.38603e-16 -1.88121 -6.99489)
(-3.66028e-16 -2.70591 -2.60838)
(-1.88935e-16 -2.6079 -1.55074)
(-3.14255e-17 -1.89043 -1.40167)
(1.50683e-17 -1.47579 -1.27801)
(1.44035e-17 -1.24033 -1.2369)
(7.54425e-18 -0.910052 -1.29628)
(-6.66223e-19 -0.411158 -1.13346)
(1.8929e-17 -0.38889 -0.857699)
(-1.73996e-15 -106.147 10.2229)
(1.02244e-15 12.2713 23.0725)
(3.96805e-15 27.4677 -25.7531)
(-6.11029e-17 7.58232 20.2009)
(-2.4405e-17 4.1138 -2.40138)
(-2.69715e-17 4.51798 4.64652)
(9.83187e-17 4.98245 2.07361)
(1.41817e-16 2.86153 4.09481)
(-1.65977e-15 -0.911117 -7.67765)
(-1.16461e-15 -8.71425 -11.3016)
(-3.066e-16 -11.7542 -6.62271)
(-1.82686e-16 -9.88392 -3.04984)
(-8.6927e-17 -7.09433 -1.98627)
(-8.73407e-18 -4.95635 -1.69837)
(1.09559e-17 -3.80955 -1.46478)
(8.04712e-18 -3.08693 -1.38098)
(3.79115e-18 -2.44215 -1.44531)
(-1.08875e-18 -1.70173 -1.31853)
(1.35612e-17 -1.784 -1.10568)
(1.45007e-14 83.6529 -63.1106)
(5.4819e-16 -35.6041 103.812)
(3.71167e-15 43.1003 -25.547)
(-2.17832e-16 6.60527 32.3537)
(8.55995e-18 10.656 -1.63311)
(-2.35798e-17 5.92047 4.14296)
(4.00278e-18 6.86986 1.16509)
(9.05937e-17 5.50249 3.49285)
(-8.57578e-16 0.0997417 -4.95557)
(-9.27363e-16 1.92282 -8.81484)
(-2.04755e-16 6.97101 -2.46722)
(-6.9563e-17 5.89146 0.742309)
(-2.80272e-17 3.93487 0.982151)
(-1.55328e-19 2.76641 0.5984)
(5.70839e-18 2.05417 0.274583)
(3.74138e-18 1.61589 0.0850092)
(1.71993e-18 1.42549 -0.0419607)
(-9.34126e-19 1.26347 0.0303861)
(1.00508e-17 1.09339 0.185289)
(-5.46708e-14 -308.81 253.431)
(4.07717e-15 64.4624 -77.659)
(2.56428e-15 54.5078 -17.1076)
(-6.75473e-17 7.85697 23.4079)
(2.24309e-18 14.4533 0.0044333)
(4.08931e-18 7.10789 2.0061)
(-6.55172e-18 7.79718 0.16214)
(-1.09237e-17 6.30426 1.21172)
(-1.13159e-17 3.95089 4.25995)
(1.79116e-17 -18.4364 -12.7034)
(1.90792e-16 -32.3641 -14.7636)
(2.39221e-17 -28.2864 -12.1027)
(-3.13036e-17 -19.855 -9.44021)
(-1.22849e-17 -13.6965 -7.5799)
(-2.95552e-19 -10.4085 -6.25164)
(1.12189e-18 -8.34458 -5.47386)
(6.15037e-19 -6.74429 -5.19911)
(-2.25419e-19 -4.74636 -4.69971)
(1.77783e-18 -4.20635 -5.41552)
(-2.12446e-17 5.20629 9.53788)
(-6.25562e-15 9.83413 16.8108)
(-5.25639e-15 9.97871 17.071)
(-5.02109e-15 9.70639 16.3534)
(-4.94689e-15 9.65457 16.175)
(-6.96509e-15 9.70325 16.1293)
(-5.57746e-15 9.72271 16.1022)
(-5.00992e-15 9.75314 16.0736)
(-4.8988e-15 9.75824 16.0503)
(-4.86112e-15 9.7885 16.047)
(-5.04113e-15 9.77057 16.0231)
(-4.98064e-15 9.69446 15.8251)
(-4.59332e-15 9.73933 15.9704)
(-5.06598e-15 9.74592 16.0345)
(-4.79924e-15 9.73203 16.0627)
(-4.58853e-15 9.6885 16.1075)
(-4.87912e-15 9.67694 16.1083)
(-4.65632e-15 9.77273 16.5001)
(-4.41634e-15 10.2863 17.1824)
(-7.00669e-15 6.40663 11.1763)
(1.24274e-16 4.81592 8.0782)
(-5.12593e-15 9.24194 15.7941)
(-4.25632e-15 9.10082 15.5761)
(-4.01174e-15 8.78205 15.0284)
(-3.88437e-15 8.76634 15.0326)
(-6.4848e-15 8.80451 15.0665)
(-4.34541e-15 8.81129 15.0993)
(-4.22141e-15 8.83458 15.1213)
(-4.20493e-15 8.84723 15.1529)
(-4.32425e-15 8.8633 15.1764)
(-4.09784e-15 8.88135 15.2107)
(-4.47899e-15 8.9209 15.2817)
(-3.98552e-15 8.93395 15.2796)
(-4.37026e-15 8.93729 15.3069)
(-4.28046e-15 8.96027 15.3332)
(-3.97044e-15 8.95505 15.3687)
(-4.18515e-15 8.9817 15.3921)
(-3.9842e-15 9.15981 15.7746)
(-3.69704e-15 9.55292 16.4077)
(-6.12337e-15 5.69974 9.91881)
(-8.61669e-18 5.50689 9.58418)
(-2.00216e-15 9.60893 16.4298)
(-1.52726e-15 9.30355 16.0293)
(-1.45543e-15 9.05914 15.5457)
(-1.57883e-15 9.02457 15.5314)
(-3.89003e-15 9.04302 15.5301)
(-1.91642e-15 9.03113 15.5352)
(-1.95892e-15 9.03826 15.5308)
(-2.10304e-15 9.03144 15.5342)
(-2.0486e-15 9.03536 15.5352)
(-1.90587e-15 9.03236 15.5379)
(-2.00852e-15 9.02579 15.5331)
(-1.67978e-15 9.02812 15.5446)
(-1.79069e-15 9.02509 15.5563)
(-2.09839e-15 9.0316 15.5597)
(-1.94905e-15 9.01559 15.5717)
(-1.97244e-15 9.03244 15.5705)
(-1.82236e-15 9.20024 15.94)
(-1.62969e-15 9.60318 16.5532)
(-3.16226e-15 5.80688 10.1829)
(-1.56507e-18 5.57351 9.59764)
(4.69359e-16 9.46987 16.2512)
(3.49027e-16 9.12146 15.7282)
(3.51404e-16 8.90076 15.3089)
(3.7851e-16 8.88052 15.3173)
(-2.35072e-15 8.90015 15.326)
(-1.96256e-15 8.89159 15.3397)
(-1.86601e-15 8.90068 15.3435)
(-2.08815e-15 8.89667 15.3546)
(-2.04857e-15 8.90182 15.3607)
(-1.6803e-15 8.9012 15.3705)
(-1.94417e-15 8.9047 15.3815)
(-1.60415e-15 8.90717 15.3878)
(-1.93264e-15 8.90441 15.3993)
(-1.83977e-15 8.91219 15.4048)
(-2.09743e-15 8.90018 15.4165)
(-1.77463e-15 8.91625 15.4181)
(-1.53041e-15 9.09172 15.78)
(-1.74454e-15 9.4855 16.4136)
(-3.11031e-15 5.81355 10.1588)
(1.02664e-18 5.84859 10.1218)
(-1.0871e-16 9.52646 16.3458)
(-8.00545e-17 9.11534 15.7367)
(-8.25365e-17 8.92562 15.3619)
(-9.05832e-17 8.90422 15.3716)
(5.24648e-16 8.91953 15.3743)
(4.35358e-16 8.908 15.3835)
(4.55683e-16 8.91376 15.3835)
(4.80338e-16 8.90691 15.3904)
(4.63766e-16 8.90928 15.393)
(4.50954e-16 8.90573 15.3986)
(4.61788e-16 8.90501 15.4029)
(3.95028e-16 8.90481 15.4079)
(4.31254e-16 8.90119 15.4157)
(4.72344e-16 8.90571 15.4182)
(4.52329e-16 8.89331 15.4257)
(4.6151e-16 8.9059 15.4226)
(4.24772e-16 9.06517 15.755)
(3.9767e-16 9.47848 16.4225)
(7.09961e-16 5.9723 10.4541)
(-3.62724e-19 6.02026 10.3978)
(2.48201e-17 9.49028 16.2998)
(1.90702e-17 9.04909 15.6243)
(1.91123e-17 8.88232 15.2955)
(2.13398e-17 8.86594 15.3102)
(-1.22591e-16 8.88033 15.3139)
(-1.06121e-16 8.87024 15.324)
(-1.12922e-16 8.87613 15.3254)
(-1.09234e-16 8.87022 15.3333)
(-1.07731e-16 8.87291 15.3369)
(-1.10459e-16 8.86981 15.3436)
(-1.11559e-16 8.8702 15.349)
(-9.42063e-17 8.86983 15.3544)
(-1.058e-16 8.86714 15.3621)
(-1.08484e-16 8.87097 15.3655)
(-9.72855e-17 8.86077 15.3732)
(-1.07459e-16 8.8705 15.3692)
(-1.06451e-16 9.0136 15.6672)
(-9.62256e-17 9.44673 16.3793)
(-1.57577e-16 6.12988 10.7209)
(1.08907e-19 6.22347 10.7529)
(-5.61403e-18 9.48341 16.2914)
(-4.63138e-18 9.01393 15.5672)
(-4.48475e-18 8.87013 15.2784)
(-4.92514e-18 8.85542 15.2946)
(2.8479e-17 8.86803 15.2968)
(2.62646e-17 8.85803 15.3057)
(2.61879e-17 8.86298 15.3066)
(2.54093e-17 8.85698 15.3135)
(2.55748e-17 8.85907 15.3164)
(2.61589e-17 8.8556 15.3223)
(2.63797e-17 8.8557 15.3267)
(2.35008e-17 8.8546 15.3318)
(2.60238e-17 8.85232 15.3383)
(2.53285e-17 8.85491 15.3416)
(2.23101e-17 8.84617 15.3485)
(2.49603e-17 8.85318 15.3431)
(2.55242e-17 8.97797 15.6044)
(2.32847e-17 9.42807 16.35)
(3.43202e-17 6.3097 11.0333)
(-3.03546e-20 6.40958 11.0671)
(1.26897e-18 9.45627 16.2516)
(1.12229e-18 8.97038 15.4925)
(1.05792e-18 8.8474 15.2429)
(1.12529e-18 8.83513 15.2604)
(-6.51362e-18 8.84653 15.2625)
(-6.34165e-18 8.83741 15.271)
(-5.97403e-18 8.842 15.2724)
(-6.05583e-18 8.83656 15.2792)
(-6.07136e-18 8.83857 15.2823)
(-6.10198e-18 8.8353 15.2883)
(-6.11991e-18 8.83571 15.2926)
(-5.75201e-18 8.83435 15.2979)
(-6.26181e-18 8.83285 15.3039)
(-5.88555e-18 8.8346 15.3079)
(-5.35743e-18 8.8277 15.3146)
(-5.8476e-18 8.83246 15.3091)
(-6.01103e-18 8.93997 15.5349)
(-5.55719e-18 9.40045 16.304)
(-7.5427e-18 6.4883 11.3398)
(8.1206e-21 6.59948 11.3919)
(-2.88068e-19 9.42936 16.21)
(-2.69682e-19 8.93387 15.4304)
(-2.50513e-19 8.83066 15.2169)
(-2.59027e-19 8.81991 15.2347)
(1.49847e-18 8.83003 15.2362)
(1.48777e-18 8.82155 15.2442)
(1.37949e-18 8.82559 15.2456)
(1.45552e-18 8.82054 15.252)
(1.42707e-18 8.82228 15.2549)
(1.41048e-18 8.8191 15.2607)
(1.40146e-18 8.81961 15.2647)
(1.35338e-18 8.81791 15.27)
(1.48228e-18 8.81704 15.2754)
(1.35349e-18 8.81787 15.2797)
(1.29735e-18 8.81261 15.286)
(1.37067e-18 8.8154 15.2808)
(1.40989e-18 8.90639 15.4726)
(1.32367e-18 9.37026 16.2523)
(1.70128e-18 6.66927 11.6515)
(-2.12415e-21 6.78558 11.7084)
(6.58093e-20 9.39439 16.1551)
(6.42724e-20 8.89787 15.3685)
(5.97634e-20 8.81288 15.1892)
(6.08403e-20 8.8035 15.2068)
(-3.51868e-19 8.8125 15.208)
(-3.41652e-19 8.8048 15.2155)
(-3.22083e-19 8.80837 15.2172)
(-3.49339e-19 8.80383 15.2233)
(-3.3143e-19 8.80536 15.2263)
(-3.23548e-19 8.8024 15.2318)
(-3.21853e-19 8.80305 15.2357)
(-3.12579e-19 8.80115 15.2411)
(-3.47532e-19 8.80091 15.2461)
(-3.1244e-19 8.80092 15.2508)
(-3.10834e-19 8.79732 15.2567)
(-3.20583e-19 8.79843 15.2524)
(-3.30945e-19 8.8743 15.4125)
(-3.18409e-19 9.33403 16.1901)
(-3.91278e-19 6.84906 11.9605)
(5.5002e-22 6.97114 12.0245)
(-1.51613e-20 9.35482 16.0919)
(-1.52147e-20 8.86503 15.3122)
(-1.43836e-20 8.79678 15.1641)
(-1.45843e-20 8.78839 15.181)
(8.38154e-20 8.79631 15.182)
(7.81501e-20 8.78934 15.189)
(7.53383e-20 8.79241 15.1908)
(8.33273e-20 8.78836 15.1966)
(7.63369e-20 8.78963 15.1996)
(7.41865e-20 8.78691 15.205)
(7.49799e-20 8.7876 15.2087)
(7.27341e-20 8.78554 15.2141)
(8.11612e-20 8.78587 15.2186)
(7.32748e-20 8.78508 15.2238)
(7.34306e-20 8.78303 15.2291)
(7.53151e-20 8.78267 15.2261)
(7.7742e-20 8.84485 15.3569)
(7.67924e-20 9.29286 16.1192)
(9.02511e-20 7.0283 12.2687)
(-1.41725e-22 7.15503 12.3375)
(3.52754e-21 9.30929 16.0185)
(3.586e-21 8.83428 15.2594)
(3.47477e-21 8.78114 15.1399)
(3.53501e-21 8.77354 15.1556)
(-1.99806e-20 8.78046 15.1566)
(-1.81295e-20 8.77423 15.1631)
(-1.75842e-20 8.77682 15.1651)
(-1.96449e-20 8.7733 15.1705)
(-1.75946e-20 8.77429 15.1736)
(-1.71258e-20 8.77186 15.1787)
(-1.77134e-20 8.77255 15.1823)
(-1.72091e-20 8.77042 15.1878)
(-1.89388e-20 8.77123 15.1918)
(-1.74619e-20 8.76974 15.1974)
(-1.72111e-20 8.76916 15.2021)
(-1.78177e-20 8.76748 15.2007)
(-1.82448e-20 8.81759 15.305)
(-1.83343e-20 9.24622 16.039)
(-2.06347e-20 7.20647 12.5748)
(3.63449e-23 7.3378 12.6486)
(-8.28098e-22 9.25841 15.9358)
(-8.44109e-22 8.80611 15.2109)
(-8.35461e-22 8.76637 15.1171)
(-8.57956e-22 8.75935 15.1314)
(4.74e-21 8.76537 15.1324)
(4.29429e-21 8.75985 15.1384)
(4.10501e-21 8.76196 15.1406)
(4.55706e-21 8.75896 15.1456)
(4.09841e-21 8.75964 15.1488)
(3.98597e-21 8.75756 15.1537)
(4.2168e-21 8.75816 15.1572)
(4.10888e-21 8.75605 15.1626)
(4.41942e-21 8.75724 15.1663)
(4.19806e-21 8.75513 15.1722)
(4.04273e-21 8.7559 15.1763)
(4.2238e-21 8.75305 15.1767)
(4.27129e-21 8.79273 15.2572)
(4.31975e-21 9.19428 15.9497)
(4.6654e-21 7.38372 12.8792)
(-9.26085e-24 7.51934 12.9575)
(1.95564e-22 9.20191 15.8434)
(1.99009e-22 8.78031 15.1666)
(1.98734e-22 8.75222 15.0953)
(2.07459e-22 8.74565 15.1081)
(-1.12187e-21 8.75085 15.1091)
(-1.03208e-21 8.74602 15.1147)
(-9.62824e-22 8.74766 15.117)
(-1.04164e-21 8.7452 15.1216)
(-9.69277e-22 8.74554 15.1249)
(-9.32311e-22 8.74386 15.1295)
(-1.00629e-21 8.74431 15.133)
(-9.80223e-22 8.74233 15.1383)
(-1.03155e-21 8.74376 15.1417)
(-1.01021e-21 8.74118 15.1479)
(-9.57913e-22 8.74315 15.1514)
(-9.97253e-22 8.73923 15.1537)
(-9.96752e-22 8.77023 15.2133)
(-1.01194e-21 9.13695 15.8513)
(-1.0483e-21 7.56 13.1816)
(2.34137e-24 7.69989 13.2645)
(-4.63114e-23 9.13993 15.7414)
(-4.70651e-23 8.75695 15.1265)
(-4.67346e-23 8.73878 15.0745)
(-4.99404e-23 8.73251 15.0858)
(2.65834e-22 8.73697 15.0868)
(2.48751e-22 8.73282 15.0919)
(2.27605e-22 8.73399 15.0945)
(2.36684e-22 8.73205 15.0987)
(2.3207e-22 8.73207 15.1021)
(2.18478e-22 8.73077 15.1064)
(2.40081e-22 8.73101 15.1099)
(2.32947e-22 8.72928 15.115)
(2.41023e-22 8.73077 15.1183)
(2.41977e-22 8.72792 15.1246)
(2.28757e-22 8.73089 15.1275)
(2.34095e-22 8.72601 15.1316)
(2.31928e-22 8.75008 15.1733)
(2.38278e-22 9.07421 15.7438)
(2.35993e-22 7.73531 13.4819)
(-5.87102e-25 7.87976 13.5702)
(1.09699e-23 9.0725 15.6298)
(1.11623e-23 8.73614 15.0909)
(1.09005e-23 8.72618 15.055)
(1.198e-23 8.72014 15.0647)
(-6.30539e-23 8.72388 15.0658)
(-5.95866e-23 8.72045 15.0704)
(-5.42441e-23 8.7211 15.0731)
(-5.41178e-23 8.71966 15.077)
(-5.58533e-23 8.71937 15.0804)
(-5.13207e-23 8.71842 15.0844)
(-5.71447e-23 8.7184 15.088)
(-5.5282e-23 8.71701 15.0927)
(-5.64482e-23 8.71831 15.096)
(-5.75302e-23 8.71547 15.1022)
(-5.47232e-23 8.71909 15.1046)
(-5.47885e-23 8.71341 15.1105)
(-5.39299e-23 8.73225 15.1373)
(-5.67796e-23 9.00613 15.6274)
(-5.35714e-23 7.90969 13.7798)
(1.46094e-25 8.05938 13.8752)
(-2.5953e-24 8.99947 15.5081)
(-2.65132e-24 8.7178 15.0597)
(-2.53358e-24 8.71455 15.0366)
(-2.86766e-24 8.70877 15.0447)
(1.49297e-23 8.71173 15.0461)
(1.41458e-23 8.70916 15.0501)
(1.30018e-23 8.70929 15.053)
(1.25634e-23 8.7083 15.0564)
(1.3427e-23 8.70781 15.0598)
(1.21306e-23 8.70712 15.0635)
(1.35374e-23 8.70686 15.0672)
(1.31378e-23 8.70588 15.0715)
(1.32729e-23 8.70673 15.0749)
(1.35727e-23 8.70427 15.0809)
(1.30373e-23 8.70799 15.0831)
(1.28457e-23 8.70176 15.0904)
(1.25842e-23 8.71697 15.1052)
(1.36882e-23 8.93308 15.5027)
(1.22812e-23 8.08318 14.0752)
(-3.60943e-26 8.23966 14.1804)
(6.12474e-25 8.92059 15.3748)
(6.29504e-25 8.70165 15.0324)
(5.88928e-25 8.70362 15.0189)
(6.85506e-25 8.6985 15.0253)
(-3.51797e-24 8.70034 15.0269)
(-3.33408e-24 8.69873 15.0302)
(-3.11975e-24 8.69839 15.033)
(-2.96271e-24 8.6977 15.0361)
(-3.21138e-24 8.69712 15.0394)
(-2.89424e-24 8.69657 15.0428)
(-3.18537e-24 8.69617 15.0463)
(-3.12538e-24 8.69556 15.0503)
(-3.13426e-24 8.69586 15.054)
(-3.1824e-24 8.69426 15.0594)
(-3.08514e-24 8.69726 15.0619)
(-3.02651e-24 8.69129 15.0701)
(-2.95662e-24 8.70425 15.0762)
(-3.31853e-24 8.85558 15.3705)
(-2.83513e-24 8.25515 14.3662)
(8.95305e-27 8.42319 14.4926)
(-1.45568e-25 8.83808 15.2311)
(-1.50801e-25 8.69069 15.012)
(-1.38573e-25 8.69522 15.0051)
(-1.6537e-25 8.69182 15.0089)
(8.33189e-25 8.69212 15.0105)
(7.91237e-25 8.69115 15.0126)
(7.53842e-25 8.69035 15.0148)
(7.13001e-25 8.68951 15.0171)
(7.71285e-25 8.68862 15.0197)
(7.0549e-25 8.68775 15.0224)
(7.5185e-25 8.68689 15.0254)
(7.50444e-25 8.68605 15.0287)
(7.5051e-25 8.68543 15.0321)
(7.51222e-25 8.68433 15.0364)
(7.3311e-25 8.68532 15.0397)
(7.24086e-25 8.68103 15.0469)
(7.0732e-25 8.69107 15.0483)
(8.11433e-25 8.77265 15.2324)
(6.61436e-25 8.42326 14.6449)
(-1.86303e-27 8.61058 14.8239)
(2.88876e-26 8.7527 15.0801)
(3.03324e-26 8.69281 15.0032)
(2.75521e-26 8.695 15.0014)
(3.36528e-26 8.69442 15.0021)
(-1.6444e-25 8.69407 15.0026)
(-1.58361e-25 8.69366 15.0031)
(-1.52075e-25 8.69305 15.0038)
(-1.44574e-25 8.69232 15.0046)
(-1.5474e-25 8.69143 15.0056)
(-1.45763e-25 8.69038 15.0067)
(-1.49011e-25 8.68914 15.008)
(-1.50944e-25 8.68772 15.0095)
(-1.51368e-25 8.68604 15.0113)
(-1.49529e-25 8.68417 15.0133)
(-1.46219e-25 8.68208 15.0156)
(-1.46357e-25 8.67892 15.0189)
(-1.43277e-25 8.67938 15.02)
(-1.66118e-25 8.69418 15.0844)
(-1.29496e-25 8.5934 14.8933)
(3.11674e-15 0.19312 -2.6828)
(1.2921e-15 0.450074 -3.47724)
(-1.28055e-15 -0.0859869 0.849682)
(-1.4482e-15 -0.0242028 0.708179)
(-1.67774e-15 -0.11219 0.989151)
(-2.05622e-15 -0.467247 3.10927)
(-1.00486e-15 -1.13858 4.29187)
(-4.82769e-16 -1.37889 4.2128)
(1.7757e-16 -1.50811 4.33692)
(1.78272e-15 -2.44825 6.76229)
(2.12749e-15 -2.98604 5.70158)
(2.72618e-15 -3.10517 5.70548)
(4.03327e-15 -4.43253 7.94435)
(2.75752e-15 -4.48848 6.00425)
(2.27678e-15 -5.08705 6.10557)
(1.60347e-15 -5.04006 6.23285)
(9.20139e-16 -7.05449 9.49651)
(-1.28044e-16 -6.55834 7.82845)
(-7.55904e-16 -7.11114 9.17122)
(-1.31488e-15 -10.0989 14.7119)
(-5.49271e-16 -8.22073 13.4284)
(-1.6198e-15 -8.52998 14.1544)
(-3.02069e-15 -8.43751 13.3589)
(-4.66445e-15 -8.62084 12.9927)
(-5.22838e-15 -8.66043 12.9968)
(-4.41611e-15 -8.79307 13.4074)
(-2.89693e-15 -8.85622 13.9135)
(-1.59012e-15 -8.91482 14.2141)
(-1.78297e-16 -8.73489 13.6528)
(5.44142e-16 -8.47218 12.7394)
(1.52047e-15 -8.4236 12.4341)
(1.85913e-15 -8.38388 12.2161)
(2.21462e-15 -8.29367 12.2085)
(2.29918e-15 -8.18064 12.3438)
(2.14062e-15 -8.05098 12.5447)
(1.82353e-15 -7.87479 12.6955)
(1.74248e-15 -7.59675 12.6294)
(1.62153e-15 -7.33809 11.8423)
(2.00232e-15 -2.75738 -0.231312)
(1.53891e-15 -5.72138 3.4602)
(1.67013e-15 -3.31154 -1.54072)
(2.31117e-15 -7.43893 1.6588)
(2.03795e-15 -5.70186 -0.0826984)
(1.5819e-15 -5.40233 -0.191799)
(2.20712e-15 -6.95412 -0.498273)
(1.5042e-15 -4.89097 -0.780487)
(2.31743e-15 -6.1352 -1.32206)
(1.84096e-15 -5.24187 -1.95051)
(1.44436e-15 -4.22549 -1.80787)
(2.01273e-15 -5.20594 -2.73242)
(1.23805e-15 -3.08218 -2.21395)
(1.76648e-15 -3.71305 -3.46139)
(1.1317e-15 -2.27736 -3.07391)
(7.10573e-16 -1.23578 -2.20679)
(8.80199e-16 -1.34107 -3.23718)
(2.05151e-16 -0.299909 -1.53623)
(1.03899e-16 0.525822 -1.11587)
(-3.6032e-16 0.60139 1.59567)
(5.46187e-16 0.405367 1.54464)
(-3.72156e-15 0.689218 3.75343)
(3.42395e-16 0.267767 -3.18997)
(4.13229e-16 -0.468465 -1.79591)
(1.81734e-15 0.11911 4.16307)
(2.23917e-15 0.50691 0.578359)
(2.12685e-15 0.273024 -2.36009)
(6.83339e-16 -0.142279 -0.454024)
(5.35111e-16 -0.170289 2.94626)
(9.17228e-16 -0.255072 4.78501)
(9.18233e-16 -0.182743 6.23352)
(8.03916e-16 -0.104332 6.99483)
(6.77582e-16 -0.0176176 7.3733)
(5.70825e-16 0.0688614 6.92671)
(5.25568e-16 0.201569 5.53581)
(5.51563e-16 0.493495 2.291)
(7.01602e-16 0.676118 -3.4022)
(9.69271e-16 0.659943 -9.86387)
(1.19565e-15 -0.0507421 -15.2516)
(1.04522e-15 -0.967674 -11.21)
(-1.23608e-15 -0.476962 1.36599)
(5.19713e-16 0.944928 -1.73731)
(7.91017e-16 -1.40387 -4.29366)
(1.9656e-15 -0.123458 4.36031)
(1.87942e-15 1.03998 1.75179)
(1.2236e-15 -0.0746965 0.280177)
(1.07824e-15 -0.868007 2.66134)
(9.66802e-16 -0.788044 7.73525)
(8.57379e-16 -0.460535 8.70128)
(4.13839e-16 -0.213362 8.53457)
(1.78193e-16 -0.124241 8.51376)
(2.74309e-17 0.0509267 8.45794)
(9.18445e-18 0.281787 7.89134)
(1.06637e-16 0.641319 6.39818)
(3.28425e-16 1.36851 3.21829)
(7.50877e-16 1.97605 -2.1286)