/*--------------------------------*- C++ -*----------------------------------*\
| =========                 |                                                 |
| \\      /  F ield         | OpenFOAM: The Open Source CFD Toolbox           |
|  \\    /   O peration     | Version:  4.1                                   |
|   \\  /    A nd           | Web:      www.OpenFOAM.org                      |
|    \\/     M anipulation  |                                                 |
\*---------------------------------------------------------------------------*/
FoamFile
{
    version     2.0;
    format      ascii;
    class       volScalarField;
    location    "12";
    object      p;
}
// * * * * * * * * * * * * * * * * * * * * * * * * * * * * * * * * * * * * * //

dimensions      [0 2 -2 0 0 0 0];

internalField   nonuniform List<scalar> 
1680
(
-5.1889
-3.4219
-1.39115
-2.15843
-2.93589
-1.65206
-2.2878
-3.08769
-1.64235
-2.63414
-3.10214
-2.84632
-3.54264
-2.08918
-3.4776
-4.5178
-3.68848
-6.5797
-0.755123
-10.1967
-1.44289
-29.6666
0.0860398
-1.82963
-0.861849
0.485396
1.54475
2.47818
4.20207
4.55067
7.81871
-19.1169
-1.75913
-1.94009
-0.934444
-0.509539
0.69306
0.199272
4.41227
-0.180606
-45.9484
-20.6895
-17.5858
1.56011
-4.32325
-4.15517
-0.559831
8.38857
5.33284
5.56198
7.7966
7.93098
7.99399
7.969
7.95426
7.92541
7.92129
7.90694
8.03197
7.87377
6.36723
27.8157
-11.3458
-2.69931
-5.31795
5.62465
9.19323
-0.284473
-8.71967
-6.95762
-1.1622
1.941
1.88946
1.44317
1.19829
-0.0771188
-13.1413
4.61654
13.008
-1.09239
28.13
-16.2094
-5.08537
-8.06274
3.10717
6.90201
-0.928985
-7.69159
-5.58891
-0.854118
1.61371
1.71907
1.30286
1.0287
-0.237143
-7.71148
5.87572
8.37517
-10.7605
28.7934
-21.4004
-7.34339
-10.8899
0.442119
5.15884
-1.46087
-6.87509
-4.30351
-0.535593
1.32868
1.55336
1.1306
0.889773
-0.558529
-4.27033
3.43854
10.3751
-22.6645
29.6502
-26.908
-9.41406
-13.8521
-2.15863
3.74586
-1.95659
-5.92765
-3.125
-0.198949
1.09141
1.3947
0.984142
0.737658
-0.501879
-2.04236
0.837708
17.5709
-36.759
30.6673
-32.7371
-11.2824
-17.041
-4.65485
2.50632
-2.55879
-5.0816
-2.12279
0.1288
0.900677
1.24596
0.839689
0.630162
-0.461031
-1.24773
-0.283831
16.1168
-53.0102
31.8527
-38.878
-13.0044
-20.5144
-7.01831
1.38895
-3.22625
-4.35817
-1.36087
0.380161
0.74597
1.10207
0.705217
0.511262
-0.408207
-1.15142
-0.100531
1.76373
-71.576
33.2619
-45.328
-14.6845
-24.2712
-9.19791
0.394553
-3.74848
-3.75227
-0.883525
0.491679
0.612816
0.961036
0.577028
0.404819
-0.408655
-1.02005
-0.379426
-1.38654
-92.1266
34.9086
-51.9491
-16.3785
-28.2744
-11.136
-0.352586
-3.83111
-3.26488
-0.624958
0.490447
0.491695
0.822628
0.455417
0.300768
-0.409314
-0.956416
-0.70464
-1.17232
-115.545
36.8867
-58.6955
-18.0672
-32.4495
-12.7463
-0.806956
-3.42814
-2.86087
-0.449711
0.451941
0.378172
0.687549
0.339072
0.201966
-0.430788
-0.922538
-0.728018
-1.11586
-140.054
38.9975
-65.0492
-19.6415
-36.5686
-13.8655
-1.02581
-2.88532
-2.51693
-0.296831
0.398203
0.271371
0.55657
0.227992
0.1074
-0.459441
-0.896792
-0.929584
-1.1459
-170.967
41.5388
-71.2474
-20.7106
-40.1244
-14.1432
-1.03111
-2.36198
-2.1893
-0.215262
0.297875
0.172547
0.42961
0.121858
0.0171932
-0.495969
-0.885015
-0.985452
-1.19363
-198.176
43.6795
-75.5123
-20.7136
-42.3276
-13.4751
-0.835757
-1.85997
-1.80048
-0.175523
0.13343
0.0767054
0.303563
0.017118
-0.0718004
-0.540863
-0.882892
-1.07541
-1.20953
-250.412
47.2332
-80.5191
-18.9971
-42.9183
-12.4647
-0.557309
-1.4402
-1.42541
-0.168093
-0.0461833
-0.0178567
0.179876
-0.0845808
-0.158367
-0.590565
-0.890005
-1.14806
-1.24362
-266.846
48.2525
-79.661
-17.8033
-42.4329
-11.1397
-0.362114
-1.09974
-1.18158
-0.182404
-0.169325
-0.0951952
0.0720248
-0.168561
-0.229284
-0.627562
-0.887053
-1.17942
-1.26372
-403.627
55.8104
-86.9117
-17.2809
-41.7679
-9.50046
-0.408425
-0.875576
-1.03816
-0.203674
-0.28833
-0.181973
-0.0431948
-0.262719
-0.308799
-0.680903
-0.902985
-1.22413
-1.28482
-301.002
48.5276
-70.0095
-18.6648
-41.3686
-8.75606
-1.12074
-0.900923
-1.05998
-0.256631
-0.466327
-0.333115
-0.215264
-0.421371
-0.447146
-0.809983
-0.999921
-1.37418
-1.42313
-852.328
73.7214
-96.4188
-14.3376
-38.2499
-7.47968
-2.05603
-0.833128
-0.980104
-0.271199
-0.486886
-0.349962
-0.261677
-0.435209
-0.455876
-0.774435
-0.932888
-1.28187
-1.32336
100.785
20.1593
-25.9455
-18.602
-26.5139
-3.89977
-2.22371
-0.55808
-0.638876
-0.174062
-0.275329
-0.160298
-0.110637
-0.234242
-0.265224
-0.496033
-0.616874
-0.854536
-0.891601
-2760.32
118.424
-147.017
-4.43405
-46.9548
-13.982
-4.77021
-1.78993
-1.64602
-0.526587
-1.14556
-0.901993
-0.84711
-1.0518
-1.01291
-1.4408
-1.56454
-2.1352
-2.15147
4376.98
-154.018
138.244
-56.7662
-85.2543
-22.2155
-7.05993
-3.12226
-2.83821
-1.01454
-2.16393
-1.79032
-1.7302
-2.01201
-1.90104
-2.53208
-2.668
-3.62355
-3.66319
98.848
98.1835
97.8242
96.9388
96.0425
95.0855
94.1124
93.1063
92.0969
91.0949
90.0697
89.1296
88.0427
86.8419
85.7572
84.696
83.7652
82.7577
82.1264
80.8729
78.9797
79.4395
79.6161
79.8344
79.9936
80.0938
80.1667
80.1835
80.178
80.1239
80.0522
79.9461
79.7955
79.6187
79.4362
79.2247
79.036
78.8128
78.6258
78.3678
87.6317
87.3473
87.2072
87.0068
86.8502
86.6646
86.4968
86.3124
86.1358
85.9468
85.7634
85.5657
85.3797
85.1727
84.9817
84.7651
84.5798
84.3505
84.1891
83.8955
84.7206
84.7358
84.7459
84.7365
84.7422
84.7235
84.7151
84.6886
84.6671
84.6318
84.5994
84.5544
84.5137
84.4583
84.4132
84.3465
84.3015
84.2242
84.1799
84.0781
86.7501
86.6437
86.6073
86.5277
86.4796
86.4093
86.3557
86.2897
86.2332
86.1686
86.1108
86.0454
85.9879
85.9199
85.8649
85.7915
85.7427
85.6602
85.623
85.5159
86.7987
86.7457
86.7338
86.6894
86.6692
86.629
86.6029
86.5648
86.5348
86.4971
86.4649
86.4261
86.3935
86.3518
86.3212
86.2742
86.249
86.1932
86.1781
86.1062
87.6553
87.5842
87.5647
87.5097
87.481
87.4331
87.3998
87.3559
87.3201
87.2783
87.2417
87.2002
87.1645
87.1216
87.0889
87.0419
87.0156
86.9605
86.9458
86.8754
88.1612
88.1011
88.0858
88.0384
88.0148
87.9734
87.9452
87.9073
87.8766
87.8405
87.8087
87.773
87.7417
87.7046
87.6761
87.6349
87.6124
87.5633
87.5518
87.4888
88.7818
88.7208
88.7044
88.6568
88.6324
88.591
88.5624
88.5247
88.4937
88.4582
88.4263
88.3915
88.3601
88.3243
88.2956
88.2562
88.2335
88.1864
88.1747
88.114
89.3252
89.2682
89.2528
89.208
89.1851
89.1462
89.1191
89.0838
89.0544
89.0211
88.9906
88.9582
88.928
88.8949
88.8671
88.8305
88.8084
88.7643
88.7529
88.6955
89.8691
89.8141
89.7988
89.7556
89.7332
89.6956
89.6693
89.6352
89.6066
89.5747
89.5449
89.5141
89.4843
89.4531
89.4255
89.3911
89.3689
89.3274
89.3157
89.2608
90.3817
90.3295
90.3147
90.2736
90.252
90.2162
90.1909
90.1585
90.131
90.1007
90.072
90.043
90.014
89.9849
89.9576
89.9258
89.9036
89.8648
89.853
89.8008
90.8758
90.826
90.8115
90.7723
90.7513
90.7171
90.6927
90.6617
90.6352
90.6064
90.5786
90.5512
90.5229
90.4959
90.4687
90.4395
90.417
90.3811
90.3688
90.3194
91.348
91.3009
91.2866
91.2493
91.229
91.1963
91.1728
91.1432
91.1177
91.0902
91.0633
91.0374
91.0097
90.9846
90.9575
90.931
90.9079
90.8752
90.8621
90.8155
91.7992
91.7552
91.7413
91.7062
91.687
91.656
91.6338
91.6057
91.5814
91.5553
91.5296
91.5051
91.4783
91.455
91.4279
91.4041
91.3801
91.3507
91.3365
91.2929
92.2179
92.1774
92.1639
92.1313
92.1139
92.0848
92.0645
92.0388
92.0162
91.9925
91.9689
91.9464
91.9217
91.9008
91.8746
91.8545
91.8297
91.8048
91.7892
91.7497
92.6128
92.5755
92.5608
92.5286
92.5124
92.484
92.4638
92.4396
92.4175
92.395
92.3727
92.3513
92.3286
92.3093
92.2848
92.2689
92.2433
92.2251
92.2092
92.1751
93.0122
92.9849
92.9736
92.9411
92.9282
92.9026
92.883
92.8604
92.8382
92.8154
92.7918
92.768
92.7429
92.719
92.6908
92.6706
92.6365
92.6214
92.5952
92.5576
93.2862
93.2772
93.2923
93.2717
93.2719
93.2645
93.2598
93.2546
93.2489
93.2426
93.2349
93.2254
93.2134
93.1987
93.1784
93.1574
93.1189
93.0975
93.0256
92.9687
93.2517
93.1934
93.2315
93.2422
93.2597
93.2774
93.2963
93.317
93.3397
93.3647
93.3926
93.4236
93.4584
93.4972
93.5407
93.5897
93.6424
93.7111
93.7524
93.9156
7.88274
7.79218
7.87525
7.8144
7.74349
7.62263
7.65941
7.43912
7.46748
7.61671
5.24394
5.41884
5.79899
-1.56842
-4.7179
-3.69763
0.0490739
-21.7368
-18.6404
-27.9383
-23.8921
-18.9624
-18.2779
-15.3961
-13.502
-11.0667
-8.44176
-8.19881
-13.6209
2.46712
3.86981
5.55388
6.55114
7.45196
7.93046
8.49627
7.84437
0.722778
-27.7311
-13.3993
-21.482
-5.84045
-25.6928
-17.0595
-23.4413
-16.6277
-8.25583
-19.987
-13.6731
-16.0543
-12.0701
-8.757
-15.334
-12.9069
-14.1467
-18.1491
-18.2604
-18.5715
-18.4649
-18.5395
30.8478
20.6651
25.2084
20.2149
21.4303
23.1156
21.9434
17.766
7.65899
7.03113
12.6335
23.8863
39.6518
58.1618
54.465
4.49651
-69.7302
-66.6755
-29.4106
30.6124
20.0675
25.3182
19.8815
21.4911
23.1243
21.6588
17.072
6.49798
6.12057
12.1444
23.4439
38.7499
57.06
52.8977
2.06905
-74.486
-71.9908
-31.1585
30.2773
19.7482
25.618
19.3908
21.4008
22.7917
20.3245
15.1167
4.8627
5.10517
11.3434
22.3905
36.894
54.6369
49.754
-1.86202
-80.8064
-80.9773
-34.9094
29.8367
19.2761
25.8292
18.6094
20.5477
21.5478
18.8441
13.2203
2.86143
3.55803
10.1155
20.7559
34.0649
50.958
45.408
-6.86133
-88.0633
-90.2987
-39.2808
29.5609
18.601
26.4816
18.7431
19.3808
20.07
17.3622
11.2122
0.477163
1.59431
8.57954
18.6247
30.4221
46.1587
40.2354
-12.4402
-95.0813
-99.018
-43.7083
29.6001
18.0468
27.2909
19.1425
18.1995
18.5934
15.9155
9.00023
-2.23151
-0.722197
6.92778
16.2537
26.2975
40.5682
34.6392
-18.0792
-101.271
-106.35
-48.8434
29.7009
17.6561
27.3657
19.1388
16.8889
17.1284
14.5543
6.67691
-4.87948
-3.06897
5.43848
13.9757
22.0801
34.5839
28.8698
-23.3533
-105.953
-111.701
-52.8719
28.9672
17.0634
26.5874
18.7306
15.4298
15.7156
13.3107
4.38212
-6.94869
-5.0562
4.28681
12.0015
17.9963
28.4959
23.2047
-27.748
-108.811
-114.612
-55.6905
27.9661
16.1477
24.9337
17.7996
13.8063
14.3945
12.2278
2.29618
-8.21368
-6.46278
3.40377
10.3191
14.0482
22.4792
17.8673
-30.7667
-109.483
-114.905
-56.7919
29.0084
15.8636
22.3935
16.3022
12.0528
13.2111
11.3286
0.558838
-9.05503
-7.37621
2.66632
8.88154
10.2547
16.7696
13.1037
-32.1882
-107.541
-112.784
-55.3004
32.1201
17.3482
19.6834
14.509
10.2925
12.2103
10.614
-0.741429
-9.90617
-8.02061
2.01664
7.75999
6.94843
11.8895
9.22048
-31.9991
-103.206
-108.268
-53.123
35.03
20.2047
17.1789
12.7306
8.65522
11.4129
10.0841
-1.56121
-10.8248
-8.58066
1.37765
7.03643
4.73211
8.60914
6.50668
-30.156
-96.7677
-102.258
-47.5872
36.7278
23.2555
14.6876
11.1239
7.20316
10.8008
9.75809
-1.94351
-11.7079
-9.15568
0.721111
6.51949
3.75731
7.13677
4.95676
-27.1812
-89.8087
-93.9745
-44.9757
36.6049
25.7657
12.0997
9.70024
5.92465
10.3225
9.65429
-1.98399
-12.4663
-9.76779
0.0484319
5.9835
3.43185
6.50898
4.13286
-23.4461
-85.3911
-87.1852
-37.9982
34.6589
27.4364
9.40345
8.37258
4.76956
9.94911
9.78308
-1.74041
-13.0095
-10.322
-0.633307
5.39711
3.16296
5.69837
3.32856
-18.7101
-73.4111
-77.277
-28.7912
31.3561
28.3166
6.61112
7.02814
3.65254
9.64766
10.1331
-1.25621
-13.2814
-10.722
-1.22342
4.81047
2.81205
4.35715
2.33094
-14.1118
-56.4281
-55.3922
-6.31057
27.297
28.5831
3.70909
5.56468
2.49797
9.39706
10.536
-0.668239
-13.2413
-10.9091
-1.65351
4.1365
2.53765
2.81092
1.36544
-10.0765
-41.9804
-34.6385
3.98743
22.8378
28.455
0.607166
3.89499
1.19828
9.18312
10.9029
-0.0885941
-12.7399
-10.6417
-1.84051
3.37387
2.37276
1.77305
0.937764
-6.59876
-30.6496
-17.7245
8.23081
18.0124
28.1472
-2.86971
1.9778
-0.420032
8.72586
11.0848
0.256806
-11.6118
-9.74549
-1.75451
2.76698
2.21516
1.48881
1.11759
-3.52725
-23.2323
-5.56535
9.24987
12.6025
27.908
-6.8631
-0.280219
-2.67734
7.63967
10.7298
0.178809
-10.1093
-8.40008
-1.48322
2.31369
2.05574
1.49534
1.26852
-1.13264
-18.1856
1.66678
11.4473
701.582
618.57
569.179
512.713
463.502
416.048
371.952
330.344
291.239
254.365
219.566
186.651
155.404
125.743
97.6921
70.4393
44.4662
24.4635
1.28768
-35.3863
6.24845
-16.3982
-8.49468
-19.724
-22.7104
-29.5325
-34.677
-40.0969
-44.7926
-48.9595
-52.3687
-54.972
-56.6791
-57.4168
-57.0912
-55.7164
-53.3028
-50.0875
-47.1089
-44.2959
-7.76564
-13.9306
-5.38656
-11.7771
-9.31349
-12.1041
-12.8433
-14.7745
-16.3996
-18.2472
-20.0428
-21.8317
-23.5452
-25.1597
-26.6068
-27.6866
-28.0979
-27.0871
-25.6322
-22.9246
9.76712
7.40562
10.7011
5.64517
7.54623
4.64958
4.64096
3.35623
2.96863
2.50435
2.37849
2.35759
2.44514
2.58146
2.66803
2.69828
2.78829
3.52775
5.04583
7.20301
11.6749
10.0434
12.7604
9.90288
13.0038
11.5436
13.3793
13.3717
14.4341
14.9689
15.6928
16.244
16.7621
17.214
17.6052
17.8125
17.7087
17.5199
17.5216
16.8004
4.41376
1.13524
2.75494
-0.627954
0.863093
-1.57129
-1.06588
-2.45998
-2.6879
-3.55479
-4.08025
-4.79197
-5.47811
-6.3223
-7.3529
-8.85665
-10.8923
-12.9687
-15.5323
-18.7159
-30.5024
-35.0172
-34.8656
-39.0437
-39.4884
-43.3425
-44.8763
-48.3851
-50.96
-54.4642
-57.6926
-61.0727
-64.1393
-66.8979
-69.1023
-70.9181
-72.2397
-72.7389
-73.3698
-71.806
-54.2864
-57.198
-56.2017
-59.0243
-58.2967
-60.8105
-60.8711
-62.6811
-63.3497
-64.5622
-65.2309
-65.6336
-65.4423
-64.689
-63.3981
-61.5931
-59.6254
-57.3039
-55.5146
-51.921
-37.8266
-37.5205
-35.2349
-35.7244
-33.1965
-33.1526
-31.1302
-30.2154
-28.5311
-27.0594
-25.3646
-23.5912
-21.7122
-19.7234
-17.6911
-15.532
-13.4174
-10.9825
-8.96824
-5.82598
-11.0294
-9.17748
-6.96268
-6.45875
-3.96457
-3.16999
-1.15907
0.148025
1.7946
3.30714
4.84065
6.36531
7.86964
9.38037
10.8704
12.413
13.8895
15.5481
16.8112
18.5751
10.8956
13.0362
14.8675
15.6324
17.6531
18.4797
20.1083
21.2586
22.6046
23.8795
25.1525
26.4162
27.6488
28.8602
30.0584
31.3281
32.6256
34.1393
35.3122
36.7613
32.8431
35.1013
36.5911
37.6521
39.3993
40.3221
41.7998
42.7638
43.7476
44.3737
44.7048
44.6636
44.3199
43.8612
43.6792
44.019
45.0058
46.1942
47.1144
47.549
46.2752
47.2495
47.4315
47.4411
47.7567
47.4805
47.5035
47.0194
46.5531
45.8305
45.07
44.2582
43.4759
42.7429
42.0741
41.4664
40.916
40.0968
39.9756
38.7222
52.6622
50.188
49.0171
47.6711
47.056
45.8124
44.9621
43.6585
42.3413
40.5364
38.2787
35.2535
31.4062
26.842
22.0561
17.7578
14.7658
13.963
14.0515
10.085
8.01293
1.6918
-2.42013
-7.20695
-11.8231
-16.8711
-21.5709
-26.3423
-30.6184
-34.5653
-37.8992
-40.6355
-42.5975
-43.7129
-43.962
-43.5761
-42.9274
-42.5801
-43.7113
-46.4965
-42.5002
-48.4274
-52.5758
-56.3122
-59.6891
-63.0921
-66.0891
-68.9263
-71.3477
-73.5902
-75.6472
-77.6311
-79.5566
-81.4002
-83.0811
-84.4763
-85.4109
-85.7607
-85.9134
-83.6568
-74.4642
-75.7136
-74.7124
-73.4261
-72.7017
-72.2692
-71.9065
-71.7598
-71.7128
-71.806
-71.9456
-72.0565
-72.0356
-71.7059
-70.9336
-69.5204
-67.6895
-65.2704
-63.338
-60.2476
-60.3215
-58.3022
-54.8781
-51.1121
-48.0431
-45.4831
-43.222
-41.2455
-39.4334
-37.7716
-36.1917
-34.6328
-33.0574
-31.4037
-29.6941
-27.8631
-26.0951
-24.1887
-22.7148
-20.4472
-36.2893
-32.5817
-30.5235
-27.7703
-25.7164
-23.7825
-22.0759
-20.536
-19.12
-17.8284
-16.6197
-15.4634
-14.3518
-13.2442
-12.1708
-11.0705
-10.0589
-8.9392
-8.11807
-6.94871
15.9015
17.9768
17.729
17.985
16.9802
16.0763
14.9534
13.7976
12.6578
11.5488
10.5304
9.55278
8.69067
8.05047
7.59765
7.34018
7.23753
7.32518
7.46231
7.68853
)
;

boundaryField
{
    outletWallLeft
    {
        type            fixedValue;
        value           uniform 0;
    }
    fineWallsLeft
    {
        type            zeroGradient;
    }
    fineFrontAndBackLeft
    {
        type            zeroGradient;
    }
    fineplugLeft
    {
        type            cyclicAMI;
        value           nonuniform List<scalar> 
20
(
78.7898
83.3328
78.2766
77.1851
76.6616
76.1655
75.5988
74.9806
74.518
73.786
73.6195
76.556
70.0824
69.0855
68.4189
67.6549
67.1508
66.246
66.5835
64.6622
)
;
    }
    symmetryWallLeft
    {
        type            cyclicAMI;
        value           nonuniform List<scalar> 
20
(
7.87825
12.2277
3.14166
-15.6634
-0.60488
1.2334
1.46926
1.9726
2.12735
-1.32271
-7.67885
-9.41446
-0.0528321
9.96154
6.63216
-3.99764
-1.48976
-9.10443
27.8618
9.48489
)
;
    }
    inletOutletLeft
    {
        type            cyclicAMI;
        value           nonuniform List<scalar> 
20
(
64.6622
66.5835
66.246
67.1508
67.6549
68.4189
69.0855
70.0824
76.556
73.6195
73.786
74.518
74.9806
75.5988
76.1655
76.6616
77.1851
78.2766
83.3328
78.7898
)
;
    }
    inletLeft
    {
        type            zeroGradient;
    }
    inletWallsLeft
    {
        type            zeroGradient;
    }
    inletFacesLeft
    {
        type            zeroGradient;
    }
    fineWallsRight
    {
        type            zeroGradient;
    }
    outletWallRight
    {
        type            zeroGradient;
    }
    fineplugRight
    {
        type            cyclicAMI;
        value           nonuniform List<scalar> 
20
(
1.37241
2.17737
2.20456
2.7108
3.17175
3.86477
4.75202
5.31277
6.86099
8.91775
10.013
11.237
12.3483
13.4531
14.4471
15.2834
15.9568
14.3278
12.6675
10.0414
)
;
    }
    fineFrontAndBackRight
    {
        type            zeroGradient;
    }
    symmetryWallRight
    {
        type            cyclicAMI;
        value           nonuniform List<scalar> 
20
(
7.87825
12.2277
3.14166
-15.6634
-0.60488
1.2334
1.46926
1.9726
2.12735
-1.32271
-7.67885
-9.41446
-0.0528321
9.96154
6.63216
-3.99764
-1.48976
-9.10443
27.8618
9.48489
)
;
    }
    inletOutletRight
    {
        type            cyclicAMI;
        value           nonuniform List<scalar> 
20
(
1.37241
2.17737
2.20456
2.7108
3.17175
3.86477
4.75202
5.31277
6.86099
8.91775
10.013
11.237
12.3483
13.4531
14.4471
15.2834
15.9568
14.3278
12.6675
10.0414
)
;
    }
    inletRight
    {
        type            zeroGradient;
    }
    inletWallsRight
    {
        type            zeroGradient;
    }
    inletFacesRight
    {
        type            zeroGradient;
    }
}


// ************************************************************************* //
