/*--------------------------------*- C++ -*----------------------------------*\
| =========                 |                                                 |
| \\      /  F ield         | OpenFOAM: The Open Source CFD Toolbox           |
|  \\    /   O peration     | Version:  4.1                                   |
|   \\  /    A nd           | Web:      www.OpenFOAM.org                      |
|    \\/     M anipulation  |                                                 |
\*---------------------------------------------------------------------------*/
FoamFile
{
    version     2.0;
    format      ascii;
    class       surfaceScalarField;
    location    "12";
    object      phi;
}
// * * * * * * * * * * * * * * * * * * * * * * * * * * * * * * * * * * * * * //

dimensions      [0 3 -1 0 0 0 0];

internalField   nonuniform List<scalar> 
3120
(
4276.77
-58.4544
4276.77
4286.03
-9.25436
4286.03
4378.09
-92.0597
4488.85
-110.759
4488.84
4660.47
-171.63
4861.91
-201.435
4861.91
5132.28
-270.371
5132.28
5465.47
-333.198
5867.22
-401.746
5867.22
6367.98
-500.759
6367.97
7109.37
-741.393
7445.8
-336.432
7445.8
8009.42
10591.7
-1600.15
11580.5
12544.8
13511.2
14484.6
15464.5
16449.9
17440.3
18435.2
19436
17824.2
2610.89
18844.2
19872
20904.9
21943.2
22984.6
24049.1
25157.4
25935.1
19563.5
6371.51
19563.5
19563.5
12197.7
7365.86
12197.7
12197.7
12197.7
5065.55
7132.14
5065.55
5065.55
31.1747
5034.34
31.0835
30.9836
30.9265
8.22861
22.6123
8.06425
7.89859
7.84048
534.702
-526.861
-2234.44
24102.4
-2663.1
20009.7
-3854.62
22994
-4021.39
9531.52
-3429.47
1850.78
-1911.06
-4024.44
614.684
-5397
2171.62
1237.74
1716.22
5080.96
743.846
-312.461
181.562
-5970.91
-178.418
-6068.71
-129.804
-1747.42
-249.172
-1782.01
-2427.53
-3132.38
-6249.63
-8464.19
-7659.98
-13656.3
-4371.45
-10254.7
-4528.76
-2689.13
26796
-2577.39
19898
-3701.14
24117.7
-3821.73
9652.11
-3208.66
1237.71
-1779.75
-5453.35
354.504
-7531.26
1787.24
-195.012
1649.74
5218.45
883.716
453.552
321.735
-5408.93
-110.432
-5636.55
-107.357
-1750.5
-52.8195
-1836.55
-1461.66
-1723.54
-4975.08
-4950.77
-7992.65
-10638.7
-6898.45
-11348.9
-11404.6
-2957.25
29803.4
-2445.19
19385.9
-3528.74
25201.3
-3591.32
9714.68
-2989.07
635.459
-1607.02
-6835.4
-140.152
-8998.12
1075.54
-1410.7
1507.36
4786.63
969.186
991.727
389.09
-4828.84
-78.5328
-5168.93
-87.9745
-1741.06
85.72
-2010.25
-272.175
-1365.64
-2563.28
-2659.67
-6167.35
-7034.63
-7627.48
-9888.81
-13997.7
-3060.04
32960.2
-2289.43
18615.3
-3349.32
26261.2
-3373.01
9738.37
-2843.24
105.685
-1477.68
-8200.97
-379.802
-10096
668.625
-2459.14
1409.86
4045.39
998.345
1403.23
389.4
-4219.9
-78.2827
-4701.24
-67.5293
-1751.82
49.1915
-2126.97
303.474
-1619.93
-366.92
-1989.28
-3419.75
-3981.8
-6821.03
-6487.53
-13686.6
-3059.01
36163.2
-2146.41
17702.7
-3169.28
27284
-3193.78
9762.87
-2782.19
-305.906
-1439.34
-9543.82
-546.995
-10988.3
370.949
-3377.08
1287.38
3128.96
953.877
1736.73
339.153
-3605.17
-90.9309
-4271.16
-48.6174
-1794.13
51.4416
-2227.03
183.838
-1752.33
397.192
-2202.63
-764.802
-2819.8
-4302.37
-2949.96
-10623.1
-2999.84
39354.4
-2042.18
16745
-2993.92
28235.8
-3057.03
9825.99
-2765.73
-597.213
-1486.55
-10823
-733.186
-11741.7
79.0846
-4189.35
1081.08
2126.95
824.747
1993.06
267.164
-3047.59
-94.7083
-3909.29
-30.6797
-1858.16
50.6705
-2308.38
167.376
-1869.03
227.016
-2262.28
301.183
-2893.97
-1305
-1343.78
-5556.63
-2898.15
42492.8
-1982.16
15829
-2827.23
29080.9
-2932.02
9930.78
-2753.62
-775.614
-1574.53
-12002.1
-917.269
-12399
-267.071
-4839.55
720.661
1139.22
626.575
2087.15
204.649
-2625.67
-81.0534
-3623.59
-15.4608
-1923.75
50.4801
-2374.32
148.908
-1967.46
237.349
-2350.72
92.2987
-2748.92
737.079
-1988.56
-2208.66
-2748.95
45531.4
-1948.83
15028.9
-2670.06
29802.1
-2797.08
10057.8
-2711.33
-861.376
-1640.25
-13073.2
-1075.32
-12963.9
-660.946
-5253.93
263.432
214.831
431.745
1918.83
164.725
-2358.65
-58.4131
-3400.45
-4.2086
-1977.96
49.977
-2428.51
132.998
-2050.49
215.389
-2433.11
191.468
-2725
953.075
-2750.17
-2855.73
-2564.58
48438.9
-1921.71
14386.1
-2516.69
30397.1
-2620.73
10161.8
-2561.01
-921.088
-1604.04
-14030.1
-1145.43
-13422.5
-957.061
-5442.29
-121.538
-620.692
296.218
1501.08
136.537
-2198.97
-39.6761
-3224.24
3.64588
-2021.28
49.1525
-2474.02
119.539
-2120.87
196.149
-2509.72
223.917
-2752.77
353.519
-2879.77
-2838.64
-2366.63
51200.3
-1880.43
13899.8
-2348.62
30865.3
-2331.17
10144.4
-2176.37
-1075.89
-1383.4
-14823.1
-1102.27
-13703.6
-994.394
-5550.17
-261.493
-1353.6
188.99
1050.59
110.452
-2120.44
-29.0628
-3084.73
9.38889
-2059.74
47.3221
-2511.95
107.136
-2180.69
181.184
-2583.77
207.304
-2778.89
482.016
-3154.49
-3098.02
-2254.16
53913.9
-1863.04
13508.7
-2155.84
31158.1
-1834.83
9823.36
-1441.45
-1469.27
-934.958
-15329.6
-977.675
-13660.9
-942.884
-5584.96
-372.613
-1923.87
68.8308
609.143
93.1507
-2144.76
-23.8636
-2967.71
13.7034
-2097.3
44.4606
-2542.71
96.2491
-2232.47
164.012
-2651.53
200.568
-2815.45
328.69
-3282.61
-3270.09
-2221.58
56643.9
-1869.27
13156.4
-1937.89
31226.7
-1173
9058.47
-446.474
-2195.8
-323.41
-15452.7
-785.755
-13198.6
-888.271
-5482.44
-526.488
-2285.65
-53.7457
136.391
84.1979
-2282.7
-22.0966
-2861.42
16.6845
-2136.08
40.573
-2566.6
86.658
-2278.56
149.412
-2714.28
184.266
-2850.3
289.003
-3387.35
-3382.83
-2532.34
59786.3
-2066.54
12690.6
-1775.1
30935.2
-969.375
8252.75
409.421
-3574.59
286.994
-15330.3
-538.319
-12373.3
-774.55
-5246.21
-554.941
-2505.26
-105.475
-313.071
72.2755
-2460.45
-22.9648
-2766.18
18.2077
-2177.26
35.8992
-2584.29
78.2819
-2320.94
134.572
-2770.57
168.515
-2884.24
259.956
-3478.78
-3456.07
-2777.64
63179.9
-2233.7
12146.7
-1557.8
30259.3
-1119.48
7814.44
935.042
-5629.11
815.281
-15210.5
-268.518
-11289.5
-627.735
-4886.99
-425.785
-2707.21
-59.1747
-679.691
57.5897
-2577.22
-24.7547
-2683.84
18.2508
-2220.26
30.8761
-2596.91
70.7512
-2360.82
120.307
-2820.13
152.088
-2916.02
200.124
-3526.82
-3526.32
-4057.62
68102.5
-2945.01
11034.1
-1394.93
28709.3
-1093.28
7512.78
1613.48
-8335.87
1400.24
-14997.2
17.8969
-9907.12
-489.716
-4379.38
-333.094
-2863.83
-33.6568
-979.122
43.4726
-2654.35
-25.783
-2614.58
17.3192
-2263.36
25.9831
-2605.58
64.0914
-2398.92
106.739
-2862.78
136.127
-2945.41
170.278
-3560.97
-3557.47
-3999.68
72706.4
-2912.33
9946.71
-1164.94
26961.9
-604.719
6952.55
2687.57
-11628.2
2129.8
-14439.5
303.62
-8080.94
-364.114
-3711.65
-266.463
-2961.49
-15.8495
-1229.74
31.8105
-2702.01
-24.6894
-2558.09
16.255
-2304.31
21.6535
-2610.98
58.2017
-2435.47
93.3604
-2897.94
121.043
-2973.09
149.795
-3589.72
-3579.31
-7942.16
82162.3
-5026.1
7030.66
-1052.6
22988.4
-340.039
6239.99
3660.04
-15628.2
2523.16
-13302.6
401.315
-5959.09
-272.655
-3037.68
-206.165
-3027.97
-3.69325
-1432.21
23.9668
-2729.67
-20.5553
-2513.56
14.9609
-2339.83
18.9191
-2614.93
51.7889
-2468.34
80.2872
-2926.43
104.149
-2996.95
108.986
-3594.56
-3581.08
-4325.91
86319.3
-2220.99
4925.74
-1770.19
22537.6
-132.944
4602.74
3358.88
-19120.1
1548.81
-11492.5
6.4222
-4416.71
-231.195
-2800.06
-157.867
-3101.3
2.33495
-1592.42
20.7276
-2748.06
-15.0825
-2477.75
13.8557
-2368.76
18.5716
-2619.65
46.3783
-2496.15
70.4572
-2950.51
88.0478
-3014.55
85.2052
-3591.72
-3587.94
-11795.4
102056
-9938.77
3069.12
3167.59
9431.22
835.635
6934.7
1497.58
-19782
-520.723
-9474.22
-497.508
-4439.93
-177.688
-3119.88
-138.461
-3140.53
22.2657
-1753.14
11.7634
-2737.56
-10.6214
-2455.37
15.4255
-2394.81
15.4554
-2619.68
45.6645
-2526.36
57.5576
-2962.41
75.8485
-3032.84
44.4717
-3560.34
-3552.72
-26479.3
-2634.2
-13904
4231.34
157.867
-781.016
-234.52
-56.5112
-82.446
35.8175
-5.10842
-3.99408
11.2504
3.1611
27.6209
20.3475
39.1308
30.4951
-18.1903
-545.432
45.7548
-1046.03
100.185
-1043.24
139.308
-1003.41
171.951
-999.103
198.251
-999.64
218.973
-1000.67
234.777
-1001.22
246.63
-1002.28
255.316
-1003.55
259.192
-1004.68
262.358
-1002.26
247.947
-1005.61
229.169
-1009.01
207.512
-1011.2
183.346
-1014.12
157.252
-1015.35
135.134
-1042.34
110.759
-1083.92
-666.919
46.721
-592.153
56.2508
-1055.56
46.2884
-1033.28
43.2809
-1000.4
44.0956
-999.918
45.0013
-1000.55
45.747
-1001.42
46.1744
-1001.65
46.3754
-1002.48
45.8188
-1002.99
45.0712
-1003.93
48.6537
-1005.84
48.9487
-1005.91
46.8727
-1006.94
43.3825
-1007.71
38.3092
-1009.05
32.6979
-1009.74
25.3256
-1034.96
15.2759
-1073.87
-651.643
28.2692
-620.422
32.3886
-1059.68
27.7881
-1028.68
27.3225
-999.939
27.4045
-1000
27.2168
-1000.36
26.8955
-1001.1
26.4334
-1001.19
25.7246
-1001.77
24.8335
-1002.1
23.5042
-1002.6
20.5509
-1002.89
18.1878
-1003.54
15.62
-1004.37
12.6281
-1004.72
9.11255
-1005.54
5.06019
-1005.69
0.415585
-1030.32
-3.54215
-1069.91
-655.185
24.073
-644.495
25.2727
-1060.88
20.169
-1023.58
18.2374
-998.007
16.8118
-998.574
15.3187
-998.865
13.7693
-999.547
12.1915
-999.609
10.5627
-1000.14
8.83642
-1000.37
7.06288
-1000.83
5.44761
-1001.27
3.49975
-1001.59
1.30795
-1002.18
-1.02128
-1002.39
-3.59635
-1002.96
-6.36598
-1002.92
-10.7914
-1025.89
-13.171
-1067.53
-668.356
22.228
-666.723
21.9204
-1060.58
16.9561
-1018.61
14.8567
-995.908
13.0254
-996.743
11.1277
-996.967
9.19336
-997.612
7.26132
-997.677
5.29644
-998.176
3.31453
-998.39
1.29334
-998.806
-0.846441
-999.134
-2.95568
-999.485
-5.13453
-999.998
-7.32579
-1000.2
-9.58807
-1000.7
-12.0136
-1000.49
-16.6892
-1021.22
-18.3758
-1065.85
-686.732
21.3521
-688.075
20.2293
-1059.45
15.4983
-1013.88
13.4568
-993.866
11.5779
-994.864
9.65329
-995.043
7.68737
-995.646
5.72466
-995.714
3.73476
-996.186
1.72919
-996.384
-0.293221
-996.783
-2.33422
-997.093
-4.39739
-997.422
-6.52334
-997.872
-8.64085
-998.084
-10.7962
-998.543
-13.054
-998.237
-17.7685
-1016.5
-19.8248
-1063.79
-706.556
21.0865
-709.162
19.2031
-1057.57
14.6572
-1009.34
12.6597
-991.869
10.7674
-992.972
8.83717
-993.113
6.8731
-993.682
4.919
-993.76
2.94329
-994.21
0.963921
-994.405
-1.0262
-994.793
-3.04038
-995.079
-5.04633
-995.416
-7.09356
-995.825
-9.11523
-996.063
-11.1575
-996.501
-13.2443
-996.15
-17.7227
-1012.03
-20.2747
-1061.24
-726.831
20.8725
-730.034
18.3378
-1055.03
14.0221
-1005.02
12.1333
-989.98
10.2904
-991.129
8.41875
-991.241
6.5126
-991.776
4.61708
-991.865
2.69952
-992.293
0.780075
-992.485
-1.14943
-992.864
-3.09514
-993.133
-5.03579
-993.475
-7.01425
-993.847
-8.96438
-994.113
-10.9361
-994.53
-12.905
-994.181
-17.1618
-1007.77
-20.2954
-1058.1
-747.126
20.7277
-750.762
17.5423
-1051.85
13.4685
-1000.95
11.6739
-988.185
9.88366
-989.339
8.07126
-989.428
6.22603
-989.931
4.39245
-990.031
2.53694
-990.437
0.682064
-990.63
-1.18322
-990.998
-3.06219
-991.254
-4.9349
-991.603
-6.84155
-991.94
-8.71883
-992.235
-10.6213
-992.627
-12.4829
-992.32
-16.4877
-1003.76
-20.2132
-1054.38
-767.34
20.5741
-771.336
16.7564
-1048.03
12.9373
-997.128
11.2398
-986.488
9.50954
-987.608
7.76416
-987.683
5.98632
-988.153
4.22048
-988.265
2.43198
-988.649
0.645612
-988.844
-1.15275
-989.2
-2.96214
-989.445
-4.76739
-989.797
-6.60419
-990.103
-8.41261
-990.427
-10.2514
-990.788
-12.0192
-990.552
-15.7734
-1000.01
-20.0943
-1050.06
-787.434
20.4293
-791.765
15.9827
-1043.58
12.427
-993.573
10.8176
-984.878
9.14769
-985.938
7.46861
-986.004
5.75791
-986.442
4.05936
-986.567
2.33755
-986.927
0.619391
-987.126
-1.11261
-987.468
-2.85293
-987.705
-4.59158
-988.059
-6.35883
-988.336
-8.09955
-988.686
-9.87519
-989.013
-11.5572
-988.87
-15.0554
-996.512
-19.9712
-1045.14
-807.405
20.2852
-812.05
15.2151
-1038.51
11.9276
-990.285
10.4006
-983.351
8.79235
-984.33
7.18016
-984.392
5.53707
-984.799
3.90608
-984.936
2.25124
-985.272
0.601396
-985.476
-1.06436
-985.802
-2.73551
-986.034
-4.40838
-986.386
-6.10624
-986.638
-7.78049
-987.012
-9.49319
-987.3
-11.0963
-987.267
-14.3368
-993.271
-19.8463
-1039.63
-827.251
20.1479
-832.198
14.4558
-1032.82
11.4404
-987.27
9.98956
-981.901
8.44401
-982.785
6.89868
-982.846
5.32313
-983.224
3.75943
-983.372
2.1714
-983.684
0.589377
-983.894
-1.01056
-984.202
-2.61281
-984.431
-4.22092
-984.778
-5.84928
-985.01
-7.4583
-985.403
-9.10749
-985.651
-10.6377
-985.737
-13.6193
-990.29
-19.7208
-1033.53
-846.972
20.0194
-852.218
13.7045
-1026.51
10.9639
-984.529
9.58455
-980.521
8.10369
-981.304
6.62639
-981.369
5.11905
-981.716
3.62326
-981.876
2.10282
-982.164
0.588564
-982.38
-0.945166
-982.668
-2.47842
-982.898
-4.02266
-983.234
-5.58094
-983.452
-7.12645
-983.857
-8.71142
-984.066
-10.1749
-984.273
-12.8986
-987.566
-19.5896
-1026.84
-866.562
19.91
-872.128
12.9649
-1019.56
10.501
-982.065
9.1894
-979.21
7.77498
-979.889
6.36709
-979.961
4.9279
-980.277
3.49997
-980.448
2.04758
-980.711
0.600168
-980.932
-0.866984
-981.201
-2.33153
-981.434
-3.81258
-981.752
-5.29934
-981.965
-6.78319
-982.374
-8.30168
-982.547
-9.70349
-982.871
-12.1715
-985.098
-19.4457
-1019.57
-886.008
19.8437
-891.971
12.2549
-1011.97
10.0743
-979.885
8.83317
-977.968
7.48959
-978.546
6.15546
-978.627
4.78498
-978.907
3.42345
-979.087
2.03722
-979.325
0.651524
-979.547
-0.75349
-979.796
-2.15618
-980.031
-3.58055
-980.328
-5.00031
-980.545
-6.43105
-980.943
-7.88276
-981.096
-9.23017
-981.524
-11.4475
-982.881
-19.2847
-1011.73
-905.292
19.8668
-911.838
11.6132
-1003.72
9.74418
-978.016
8.60083
-976.825
7.34928
-977.294
6.11107
-977.389
4.82715
-977.623
3.54408
-977.804
2.23382
-978.015
0.913603
-978.226
-0.428849
-978.454
-1.7771
-978.683
-3.15491
-978.95
-4.52489
-979.175
-5.92939
-979.538
-7.33308
-979.692
-8.6673
-980.19
-10.672
-980.876
-19.037
-1003.36
-924.329
20.0761
-931.914
11.1014
-994.746
9.58918
-976.503
8.60412
-975.84
7.48247
-976.173
6.37075
-976.277
5.20208
-976.454
4.01686
-976.619
2.79908
-976.797
1.55778
-976.985
0.289267
-977.185
-0.997095
-977.396
-2.31826
-977.629
-3.63934
-977.854
-5.02028
-978.157
-6.37931
-978.333
-7.75886
-978.81
-9.59852
-979.036
-18.4199
-994.542
-942.749
20.7985
-952.713
11.0691
-985.016
9.96426
-975.398
9.25115
-975.127
8.35677
-975.278
7.43147
-975.352
6.42322
-975.446
5.35179
-975.547
4.21267
-975.658
3.00853
-975.781
1.74127
-975.918
0.416705
-976.072
-0.967522
-976.245
-2.38507
-976.436
-3.87426
-976.668
-5.32797
-976.879
-6.87846
-977.26
-8.53098
-977.384
-17.5626
-985.51
-960.312
22.2872
12.271
11.8725
11.7456
11.4674
11.1154
10.6695
10.1223
9.46445
8.68341
7.76537
6.69373
5.44883
4.01243
2.34431
0.465172
-1.79438
-4.17807
-14.6882
534.698
682.909
-148.212
682.91
682.91
682.911
-1190.06
1872.98
-1190.06
-1190.06
-1190.06
-5790.6
4600.54
-5790.6
-5790.6
-12050.9
6260.27
-12050.9
-12050.9
-12050.9
-20375.7
8324.79
-20375.7
-20375.7
-28573.8
8198.13
-28235.9
-27779.7
-27277.4
-26720.2
-26103.2
-25424.6
-24683
-23875.3
-28014.2
5012.14
-27074.6
-26060.1
-24968.4
-23793.7
-22523.2
-21133.8
-19595.7
-17889.4
-16092.3
-14731.9
184.572
-14270.5
-14270.5
-15334.8
1064.23
-15406.1
71.2929
-15406.1
-15029.1
-376.95
-15029.1
-14024.5
-1004.6
-12308.7
-1715.77
-12308.7
-9970.45
-2338.29
-9970.45
-7069.53
-2900.92
-4006.66
-3062.87
-4006.66
-987.919
-3018.73
1109.07
-2096.98
1109.08
1417.72
-308.639
1417.73
1417.73
1801.02
-1801.03
908.198
892.806
1093.61
-185.427
845.565
248.032
893.928
-48.3763
124.494
769.422
-1985.33
2109.82
-4250.48
2265.14
-5887.24
1636.76
-6247.26
360.016
-5617.53
-629.733
-4440.68
-1176.85
-2706.15
-1734.54
274.25
-2980.4
4139.7
-3865.46
7720.6
-3580.9
7652.6
67.9975
2610.62
5041.99
4028.35
1444.62
-3245.66
1758.3
579.11
2085.53
-512.665
1332.09
1001.46
-649.129
1932.84
-3242.31
3362.6
-5266.8
4134.3
-6676.26
3674.6
-7244.25
2204.74
-7005.61
121.374
-6301.1
-1334.24
-5128.53
-2349.42
-3324.71
-3538.36
-493.364
-5811.74
3327.05
-7685.87
6760.57
-7014.41
8238.19
-1409.62
5288.85
7991.32
9008.56
1130.73
-4376.39
1081.38
628.446
1269.94
-701.235
-262.103
2533.49
-3123.94
4794.67
-5242.82
5481.48
-6261.54
5153.02
-7006.07
4419.13
-7501.58
2700.24
-7427.62
47.4169
-6781.46
-1980.4
-5638.78
-3492.1
-3915.39
-5261.76
-1266.96
-8460.16
2341.8
-11294.6
5608.41
-10281
7405.37
-3206.58
6087.29
9309.41
12998.9
833.057
-5209.46
-175.746
1637.24
-1201.2
324.206
-2819.34
4151.63
-4789.4
6764.72
-5843.68
6535.76
-6347.91
5657.25
-7081.93
5153.14
-7735.81
3354.12
-7689.88
1.49192
-7012.22
-2658.07
-5948.67
-4555.65
-4415.65
-6794.79
-2052.63
-10823.2
1240.3
-14587.6
4388
-13428.7
6227.86
-5046.44
5893.67
9643.6
15873.8
362.024
-5571.48
-1044.71
3043.97
-3223.96
2503.45
-4596.79
5524.46
-5538.43
7706.37
-5920.23
6917.55
-6341.59
6078.61
-7158.04
5969.58
-7791.9
3987.98
-7605.65
-184.759
-6866.24
-3397.48
-5969.8
-5452.09
-4779.36
-7985.23
-2814.65
-12787.9
100.918
-17503.1
3097.26
-16425.1
4915.34
-6864.52
5188.76
9370.18
17999.7
18.4818
-5589.97
-1454.02
4516.47
-4044.73
5094.15
-5368.92
6848.65
-5807.49
8144.93
-5935.58
7045.65
-6359.3
6502.32
-7121.25
6731.54
-7511.01
4377.72
-7033.97
-661.802
-6270.08
-4161.37
-5704.15
-6018.02
-5015.97
-8673.41
-3524.74
-14279.1
-1021.29
-20006.6
1774.42
-19220.8
3554.1
-8644.2
4183.57
8740.72
19282.3
-115.019
-5474.96
-1316.24
5717.69
-4093.4
7871.31
-5598.32
8353.57
-5897.79
8444.4
-5926.58
7074.44
-6291.15
6866.89
-6860.03
7300.42
-6800.66
4318.36
-5988.52
-1473.95
-5374.8
-4775.08
-5307.45
-6085.37
-5187.27
-8793.59
-4172.93
-15293.5
-2080.55
-22099
453.737
-21755.1
2161.8
-10352.3
3029.88
7872.63
19973.9
-29.8888
-5445.08
-814.875
6502.67
-3828.35
10884.8
-5602.15
10127.4
-5866.05
8708.29
-5796.07
7004.45
-6050.91
7121.73
-6337.86
7587.37
-5774.18
3754.67
-4812.13
-2436.01
-4565.15
-5022.06
-5000.91
-5649.61
-5338.45
-8456.06
-4715.76
-15916.1
-3039.92
-23774.8
-853.47
-23941.5
759.685
-11965.4
1820.26
6812.06
20078.4
-173.114
-5271.96
-733.369
7062.92
-3732.02
13883.4
-5513.57
11908.9
-5674.28
8869
-5488.57
6818.73
-5624.39
7257.55
-5619.18
7582.16
-4751.98
2887.46
-3943.56
-3244.42
-4084.85
-4880.77
-4814.96
-4919.51
-5396.07
-7874.95
-5077.55
-16234.7
-3866.31
-24986
-2104.73
-25703.1
-623.139
-13447
535.046
5653.87
19608.9
-1103.38
-4168.6
-1751.84
7711.39
-4031.22
16162.8
-5361.16
13238.9
-5304.37
8812.22
-5023.61
6537.96
-5057.37
7291.32
-4825.43
7350.22
-3958.15
2020.18
-3442.46
-3760.13
-3726.97
-4596.26
-4464.89
-4181.59
-5139.62
-7200.22
-5149.7
-16224.6
-4525.41
-25610.3
-3258.89
-26969.6
-1943.21
-14762.7
-665.764
4376.43
18566.2
-2401.54
-1767.06
-3242.76
8552.61
-4505.12
17425.2
-5109.19
13842.9
-4788.78
8491.81
-4471.08
6220.25
-4422.72
7242.95
-4058.1
6985.6
-3386.15
1348.23
-3069.19
-4077.09
-3124.8
-4540.65
-3581.79
-3724.6
-4337.02
-6444.99
-4855.72
-15705.9
-5001.78
-25464.3
-4290.72
-27680.7
-3050.96
-16002.5
-1590.32
2915.78
17047.1
-3400.69
1633.62
-4328.64
9480.56
-4832.52
17929
-4732.77
13743.2
-4205.23
7964.27
-3907.21
5922.23
-3774.18
7109.92
-3363.47
6574.89
-2963.51
948.272
-2724.8
-4315.81
-2302.64
-4962.82
-2201.85
-3825.38
-3041.84
-5605.01
-4276.08
-14471.6
-5323.96
-24416.4
-5222.24
-27782.4
-3975.25
-17249.5
-2531.87
1472.41
15579.5
-3868.64
5502.27
-4794.67
10406.6
-4880.76
18015.1
-4272.86
13135.3
-3652.63
7344.04
-3376.58
5646.18
-3120.43
6853.77
-2727.73
6182.2
-2612.13
832.671
-2455.14
-4472.8
-1723.65
-5694.3
-1061.6
-4487.43
-1851.22
-4815.39
-3726.07
-12596.8
-5566.67
-22575.8
-6092.11
-27256.9
-4676.76
-18664.8
-2937.6
-266.759
12826.5
-3803.9
9306.16
-4792.4
11395.1
-4705.35
17928.1
-3828.8
12258.7
-3215.14
6730.39
-2882.51
5313.54
-2437.92
6409.18
-2094.69
5838.96
-2231.78
969.758
-2184.53
-4520.06
-1488.25
-6390.59
-713.232
-5262.45
-1441.9
-4086.72
-3551.59
-10487.1
-5786.49
-20340.9
-6908.32
-26135.1
-5625.11
-19948
-3779.84
-2112.02
14058.8
-3356.95
12663.1
-4501.61
12539.8
-4438.84
17865.3
-3503.52
11323.4
-2923.23
6150.1
-2404.16
4794.47
-1706.58
5711.6
-1416.05
5548.43
-1777.92
1331.62
-1844.32
-4453.66
-1296.12
-6938.79
-754.162
-5804.41
-1623.46
-3217.42
-3707.75
-8402.82
-5941.62
-18107
-7585.46
-24491.3
-8012.22
-19521.2
-7368.41
-2755.84
14888.5
-2676.8
15339.9
-4049.28
13912.2
-4198.54
18014.6
-3343.87
10468.7
-2737.66
5543.89
-1923.15
3979.96
-937.774
4726.22
-677.607
5288.26
-1247.62
1901.62
-1455.1
-4246.18
-1069.13
-7324.76
-723.538
-6150
-1703.27
-2237.7
-3736.82
-6369.27
-5901.81
-15942
-7720.94
-22672.2
-9230.3
-18011.9
-9429.48
-2556.66
13783.8
-1963.9
17303.8
-3546.83
15495.2
-4050.09
18517.8
-3353.07
9771.71
-2602.44
4793.25
-1416.74
2794.26
-149.034
3458.52
119.362
5019.86
-598.676
2619.66
-1001.37
-3843.49
-828.864
-7497.27
-538.503
-6440.36
-1292.86
-1483.34
-3184.9
-4477.23
-5504.54
-13622.4
-7370.43
-20806.3
-8827.46
-16554.9
-8913.29
-2470.83
11130.8
-1478.03
18781.8
-3116.99
17134.1
-4004.96
19405.8
-3559.94
9326.69
-2619.92
3853.22
-933.698
1108.03
637.628
1887.19
931.753
4725.73
192.302
3359.11
-470.604
-3180.59
-568.879
-7398.99
-339.718
-6669.52
-539.68
-1283.39
-2016.8
-3000.11
-4725.59
-10913.6
-6923.05
-18608.8
-7838.17
-15639.8
-7430.45
-2878.55
8300.88
-1409.68
20191.5
-2846.93
18571.4
-4004.98
20563.9
-3911.45
9233.16
-3104.19
3045.96
-1165.95
-830.219
1014.98
-293.736
1630.65
4110.06
950.888
4038.87
61.5878
-2291.29
-291.797
-7045.61
-300.82
-6660.5
-69.1252
-1515.08
-859.448
-2209.78
-3793.56
-7979.49
-6628.56
-15773.8
-6928.83
-15339.5
-5548.2
-4259.19
4625.66
-1715.76
-2725.43
-3964.02
-4095.62
-3492.37
-1816.57
760.944
2076.32
1489.62
483.142
-29.2798
-261.089
-77.3717
-385.783
-3054.54
-6542.05
-6814.92
-4107.9
-679.097
1654.1
-1102.63
1398.54
-1535.26
1407.63
-1883.16
1322.9
-2191.94
1283.78
-2450.32
1233.38
-2666.18
1190.86
-2838.85
1147.67
-2969.77
1105.92
-3058.86
1064.09
-3105.96
1022.1
-3110.4
979.438
-3070.74
935.35
-2982.61
886.865
-2833.28
825.674
-2595.11
736.83
-2222.36
602.252
-1661.65
414.29
-897.462
210.811
77.5379
-198.75
1852.85
-442.662
1642.45
-701.662
1666.63
-915.298
1536.54
-1119.05
1487.53
-1287.7
1402.04
-1431.83
1334.99
-1546.35
1262.2
-1634.37
1193.94
-1695.83
1125.55
-1731.78
1058.06
-1741.99
989.649
-1725.36
918.716
-1678
839.505
-1588.7
736.38
-1432.66
580.79
-1181.78
351.369
-818.016
50.5323
-406.797
-200.406
-329.259
-120.855
1973.71
-267.906
1789.51
-378.266
1776.99
-442.4
1600.68
-496.885
1542.02
-515.044
1420.2
-516.992
1336.94
-494.548
1239.75
-454.75
1154.15
-397.904
1068.71
-327.151
987.306
-242.64
905.141
-144.245
820.324
-33.7075
728.972
81.0592
621.617
181.643
480.209
240.505
292.512
212.747
78.2957
99.1343
-86.7871
-230.125
14.1651
1959.55
-1.32218
1805
3.58741
1772.08
19.7991
1584.47
35.5217
1526.3
65.8852
1389.84
96.3065
1306.52
134.25
1201.81
175.238
1113.16
225.885
1018.06
290.879
922.314
372.897
823.126
470.3
722.923
585.532
613.741
719.454
487.697
842.144
357.52
879.902
254.756
727.567
230.631
411.199
229.583
181.075
-14.5449
1974.09
-47.2351
1837.69
-71.348
1796.2
-109.459
1622.58
-146.905
1563.75
-191.765
1434.7
-246.05
1360.81
-309.209
1264.97
-377.803
1181.76
-435.262
1075.52
-463.716
950.77
-453.68
813.094
-406.469
675.714
-320.391
527.666
-196.797
364.106
-51.7301
212.46
77.9151
125.119
173.888
134.665
176.365
227.112
357.44
-52.9552
2027.05
-145.737
1930.47
-218.895
1869.35
-306.629
1710.32
-395.214
1652.33
-491.806
1531.29
-597.883
1466.89
-711.503
1378.59
-832.593
1302.85
-949.651
1192.58
-1051.27
1052.39
-1123.97
885.793
-1163.75
715.496
-1174.21
538.12
-1163.78
353.682
-1126.08
174.763
-1021.76
20.794
-782.344
-104.747
-398.435
-156.796
-40.9946
49.6506
1977.4
-60.9471
2041.07
-108.968
1917.38
-151.387
1752.74
-189.162
1690.11
-224.894
1567.03
-255.655
1497.65
-280.633
1403.57
-302.461
1324.68
-327.64
1217.76
-362.545
1087.3
-404.87
928.12
-447.421
758.049
-489.778
580.479
-533.488
397.394
-573.699
214.978
-604.958
52.0545
-589.342
-120.361
-428.697
-317.439
-469.692
202.153
1775.25
143.748
2099.47
143.847
1917.28
171.699
1724.88
216.637
1645.17
261.923
1521.74
321.538
1438.04
388.298
1336.82
465.155
1247.82
536.178
1146.74
587.704
1035.77
606.503
909.322
592.138
772.415
544.463
628.155
462.318
479.54
352.3
324.997
239.888
164.468
146.539
-27.0113
29.2398
-200.138
-440.452
243.594
1531.66
253.862
2089.21
269.295
1901.85
315.779
1678.4
384.762
1576.19
450.305
1456.2
525.216
1363.13
602.511
1259.52
686.938
1163.39
769.102
1064.58
840.507
964.371
889.212
860.62
907.908
753.72
891.922
644.143
838.277
533.186
744.395
418.882
607.813
301.05
415.063
165.741
206.596
8.33049
-233.856
182.273
1349.38
228.111
2043.37
253.054
1876.91
295.445
1636.01
357.015
1514.62
416.014
1397.2
478.009
1301.13
538.277
1199.26
598.938
1102.73
655.498
1008.02
703.707
916.163
737.718
826.609
752.845
738.594
745.729
651.26
714.051
564.866
653.142
479.792
555.007
399.186
406.508
314.241
206.137
208.704
-27.7184
89.5796
1259.8
141.631
1991.32
188.813
1829.72
241.23
1583.6
305.377
1450.48
370.214
1332.37
434.98
1236.37
496.843
1137.39
555.665
1043.91
610.749
952.939
662.319
864.594
711.188
777.741
757.503
692.281
796.735
612.029
816.431
545.171
793.334
502.89
703.016
489.506
527.732
489.527
276.457
459.982
248.739
-29.7903
1289.59
27.5812
1933.95
102.911
1754.39
159.259
1527.25
213.066
1396.67
266.859
1278.57
325.724
1177.5
395.914
1067.2
482.33
957.494
590.48
844.785
721.939
733.132
871.841
627.835
1022.07
542.053
1140.42
493.676
1189.1
496.491
1132.76
559.224
960.369
661.899
680.931
768.965
346.337
794.578
595.076
-147.934
1437.52
-130.967
1916.98
-74.3825
1697.81
-73.0546
1525.92
-104.832
1428.44
-149.132
1322.87
-184.102
1212.47
-197.57
1080.67
-182.828
942.752
-136.838
798.796
-59.6476
655.942
45.0427
523.145
167.697
419.399
293.969
367.404
407.938
382.522
485.599
481.563
486.199
661.298
380.586
874.577
188.23
986.933
783.306
-108.003
1545.52
-243.442
2052.41
-387.239
1841.6
-533.081
1671.76
-701.835
1597.2
-892.262
1513.29
-1085.14
1405.35
-1270.43
1265.95
-1444.85
1117.17
-1609.21
963.16
-1761.19
807.921
-1889.81
651.764
-1971.18
500.766
-1968.85
365.066
-1850.92
264.593
-1596.63
227.277
-1206.45
271.116
-721.362
389.485
-268.192
533.759
515.114
281.392
1264.13
318.754
2015.05
120.904
2039.45
-97.8767
1890.54
-280.695
1780.01
-451.313
1683.91
-624.424
1578.46
-804.915
1446.44
-990.039
1302.29
-1177.98
1151.1
-1367.16
997.101
-1553.29
837.889
-1726.61
674.08
-1867.36
505.816
-1939.82
337.051
-1889.32
176.776
-1657.84
39.6384
-1213.04
-55.3243
-580.754
-98.5271
-65.6394
608.985
655.142
969.618
1654.42
916.086
2092.98
735.631
2070.99
600.54
1915.1
512.183
1772.26
438.282
1652.36
355.964
1528.75
262.286
1395.96
159.433
1253.95
50.4355
1106.09
-63.5203
951.837
-179.505
790.056
-294.098
620.398
-402.769
445.711
-488.362
262.357
-528.846
80.114
-507.374
-76.8032
-354.555
-251.353
-420.194
471.933
183.205
691.922
1434.42
700.778
2084.12
663.842
2107.92
655.981
1922.96
683.664
1744.58
730.923
1605.1
778.69
1480.98
817.414
1357.23
843.065
1228.29
854.23
1094.92
847.781
958.283
818.115
819.719
758.928
679.582
665.882
538.753
533.882
394.353
367.304
246.686
208.701
81.7923
67.9475
-110.607
-352.247
51.3081
131.893
-19.1748
1504.91
7.91134
2057.03
100.502
2015.33
204.919
1818.54
310.84
1638.65
418.6
1497.34
522.085
1377.5
614.749
1264.57
691.767
1151.27
750.101
1036.59
786.818
921.565
798.944
807.591
783.36
695.165
737.024
585.086
656.799
474.577
541.123
362.36
387.691
235.222
195.153
81.9286
-157.094
-140.311
272.202
-275.176
1639.77
-237.535
2019.39
-133.25
1911.04
-20.1092
1705.4
91.2347
1527.31
201.418
1387.15
306.471
1272.44
400.774
1170.26
479.237
1072.81
538.607
977.218
577.827
882.342
595.839
789.578
592.221
698.782
567.013
610.293
519.337
522.251
447.144
434.554
340.014
342.353
184.712
237.233
27.6184
-189.16
-94.3757
127.972
332.668
499.95
637.925
754.505
852.288
930.835
989.097
1026.76
1035.84
1017.69
974.879
906.607
811.853
689.179
529.267
310.325
)
;

boundaryField
{
    outletWallLeft
    {
        type            calculated;
        value           nonuniform List<scalar> 
40
(
39.3288
-4.42937
-50.1719
-96.8172
-143.908
-191.432
-240.235
-289.657
-342.876
-394.8
-459.418
-508.402
-610.038
-615.952
-865.011
-604.279
-1513.71
168.946
-3941.78
4943.68
-4218.32
-3580.68
-3551.7
-3051.62
-2955.13
-2550.82
-2611.59
-2410.06
-2456.48
-2696.64
-1871.41
-3114.59
-3297.89
-4986.42
-8535.33
-15708.5
-11200.7
20701
-20776
123592
)
;
    }
    fineWallsLeft
    {
        type            calculated;
        value           uniform 0;
    }
    fineFrontAndBackLeft
    {
        type            calculated;
        value           nonuniform List<scalar> 
880
(
-2.30535e-15
3.01194e-15
-4.38221e-14
3.33685e-14
-4.9021e-14
-7.96945e-13
-3.10695e-13
-1.00019e-12
-1.25147e-12
-2.56764e-13
-8.08203e-13
-2.33408e-13
-7.30908e-13
-7.98079e-13
-2.01482e-13
-6.69456e-13
-1.93799e-13
-5.94695e-13
-7.33243e-13
-1.84023e-13
-4.36788e-14
1.03395e-12
-4.22363e-13
-5.06274e-13
-4.94601e-13
-6.96247e-13
-7.0935e-13
-7.02238e-13
-6.97523e-13
-7.40808e-13
-7.78427e-13
-6.22165e-12
-8.07662e-13
-8.53539e-13
-8.81886e-13
-8.83807e-13
-8.72778e-13
-9.01926e-13
-8.38065e-13
-9.88467e-13
-1.13458e-11
-1.58481e-12
-1.47171e-12
-8.69496e-12
-1.31075e-12
-1.29197e-12
-1.27268e-12
-6.98197e-12
-9.50068e-13
-9.69016e-13
-2.39854e-12
-4.50217e-14
9.50306e-13
-2.74612e-12
2.12935e-10
3.405e-11
1.82814e-11
9.72744e-12
4.33957e-11
4.08324e-12
2.31008e-11
9.52508e-12
-7.06145e-12
-2.07872e-11
-2.55545e-11
-2.17107e-11
-1.59144e-11
-1.3082e-11
-9.78196e-12
-9.04899e-12
-7.9321e-12
-2.0622e-12
9.44215e-14
4.55387e-14
-1.64328e-12
-1.30632e-11
-2.38108e-11
-5.44775e-12
5.53472e-11
2.38309e-11
8.7877e-12
-6.79184e-12
-2.16989e-11
-2.66378e-11
-2.24808e-11
-1.58716e-11
-1.01765e-11
-9.33173e-12
-9.59391e-12
-6.92268e-12
-1.42738e-12
3.72388e-14
3.17734e-14
-3.68447e-13
-8.10933e-12
-2.36338e-11
-2.98049e-11
5.01859e-11
2.4037e-11
7.92419e-12
-6.54025e-12
-2.21932e-11
-2.67811e-11
-2.14603e-11
-1.50473e-11
-5.32251e-12
-8.51514e-12
-9.90456e-12
-5.83531e-12
-7.59177e-13
1.24829e-14
1.377e-15
9.02514e-14
-1.41635e-12
-7.35297e-12
-1.54577e-11
-1.92478e-11
2.36041e-11
7.16708e-12
-6.27546e-12
-2.22298e-11
-2.49181e-11
-1.79634e-11
-1.25924e-11
-3.22111e-12
-7.68563e-12
-9.82958e-12
-4.74265e-12
-2.55282e-13
4.72922e-15
-1.57591e-15
-6.33798e-15
1.23058e-13
-3.39505e-12
-1.10668e-11
-1.44559e-11
2.2478e-11
6.67224e-12
-5.97004e-12
-2.16934e-11
-2.08099e-11
-1.33083e-11
-8.59436e-12
-1.38553e-12
-6.63887e-12
-9.39307e-12
-3.72967e-12
-3.96657e-15
-8.16808e-17
-1.31598e-16
-2.70184e-15
1.40002e-14
4.74104e-13
-5.45903e-12
-1.35693e-11
2.06375e-11
6.52809e-12
-5.5645e-12
-2.06622e-11
-1.63415e-11
-9.5653e-12
-4.23439e-12