/*--------------------------------*- C++ -*----------------------------------*\
| =========                 |                                                 |
| \\      /  F ield         | OpenFOAM: The Open Source CFD Toolbox           |
|  \\    /   O peration     | Version:  4.1                                   |
|   \\  /    A nd           | Web:      www.OpenFOAM.org                      |
|    \\/     M anipulation  |                                                 |
\*---------------------------------------------------------------------------*/
FoamFile
{
    version     2.0;
    format      ascii;
    class       volVectorField;
    location    "12";
    object      U;
}
// * * * * * * * * * * * * * * * * * * * * * * * * * * * * * * * * * * * * * //

dimensions      [0 1 -1 0 0 0 0];

internalField   nonuniform List<vector> 
1680
(
(-6.34427e-19 2.04756 -0.0269743)
(2.17665e-18 1.50932 -0.014548)
(-1.20598e-17 1.49964 -0.0268792)
(2.41146e-17 1.27376 0.00750262)
(-1.1699e-16 1.58002 -0.0674122)
(-2.19318e-16 1.63554 -0.159161)
(-2.24531e-16 1.36114 -0.107938)
(-2.75251e-16 1.62302 -0.188366)
(-3.44402e-16 1.80028 -0.307737)
(-1.66897e-16 1.41236 -0.205358)
(-2.22416e-16 2.02551 -0.393068)
(-1.68678e-16 1.59195 -0.274773)
(-2.01144e-16 1.833 -0.413672)
(-2.1963e-16 2.10283 -0.635671)
(-1.45606e-16 1.7509 -0.411772)
(-1.84233e-16 2.32654 -0.76016)
(-1.40054e-16 2.13895 -0.467906)
(-1.63659e-16 1.70224 -0.967355)
(-2.01787e-16 4.18849 -0.395928)
(-1.32989e-16 0.540422 -2.93797)
(-1.79195e-16 3.07625 2.07573)
(4.14618e-16 1.52257 -1.25359)
(-1.73277e-15 4.00362 6.36885)
(-2.07702e-15 4.52345 7.34051)
(-2.02913e-15 4.70805 8.22472)
(-2.8564e-15 4.83042 9.00557)
(-2.91015e-15 4.988 9.68472)
(-2.88098e-15 5.05443 10.2626)
(-2.86163e-15 5.21768 10.7961)
(-3.03921e-15 5.12355 11.1739)
(-3.19355e-15 5.53143 11.8148)
(-2.4949e-15 4.93446 9.855)
(-3.31349e-15 6.97125 13.4253)
(-3.5017e-15 7.10814 13.8045)
(-3.61799e-15 7.17455 14.1059)
(-3.62588e-15 7.16413 14.3691)
(-3.58063e-15 7.28797 14.6265)
(-3.70021e-15 7.128 14.7512)
(-3.43822e-15 7.50031 15.5867)
(-4.05525e-15 7.12662 14.2543)
(-3.9498e-15 9.82318 15.7953)
(-2.54588e-15 6.83339 11.3443)
(-2.36419e-15 5.88649 10.6908)
(-3.01767e-15 6.25968 13.7529)
(-2.10562e-15 4.48941 9.78423)
(-2.07545e-15 4.19989 9.59936)
(-2.0454e-15 3.44548 9.33652)
(-2.43062e-15 2.94989 10.8444)
(-1.52621e-15 1.86612 6.9728)
(-1.55665e-15 1.66309 6.9062)
(-8.35e-16 0.503158 5.26151)
(-7.2324e-17 1.70931 -0.340408)
(1.5266e-15 -1.16055 -2.41301)
(-4.41144e-15 -0.299753 -0.686278)
(1.08342e-13 1.02285 -6.56643)
(5.46988e-14 -0.144503 -4.54403)
(2.93677e-14 0.310118 -3.38651)
(1.56264e-14 -1.68149 -3.04262)
(1.51073e-14 -0.224328 -3.49776)
(6.55943e-15 0.144428 -2.88057)
(5.1335e-15 -7.62939 3.67037)
(2.11669e-15 -6.64774 3.59513)
(-1.56921e-15 -7.47231 5.55371)
(-4.61937e-15 -3.15068 7.13668)
(-5.67877e-15 -0.715323 6.45525)
(-4.82459e-15 1.10219 4.75549)
(-3.53654e-15 1.4431 1.55809)
(-2.90712e-15 -0.644904 -3.42962)
(-2.17377e-15 -1.63275 -3.75474)
(-2.01089e-15 0.247911 -1.93259)
(-1.76269e-15 2.08509 -0.706056)
(-4.58268e-16 2.09069 0.102247)
(2.09826e-17 0.57987 0.51187)
(1.01197e-17 0.606437 -0.0645745)
(-3.65174e-16 1.37418 0.877965)
(-2.90293e-15 3.47182 7.17904)
(-5.29128e-15 4.91993 13.7885)
(-1.21061e-15 2.91917 11.6175)
(1.22994e-14 0.389628 2.82618)
(5.29577e-15 -8.44947 4.9899)
(1.95282e-15 -6.69238 3.71039)
(-1.5093e-15 -7.85669 5.19827)
(-4.82198e-15 -3.20193 6.95506)
(-5.91952e-15 -0.514815 6.0133)
(-4.99573e-15 1.5885 4.4409)
(-3.52702e-15 2.22449 1.47313)
(-2.26144e-15 -0.126574 -2.49242)
(-2.07372e-15 -1.75346 -3.45718)
(-2.13198e-15 -0.0366755 -2.03556)
(-1.53837e-15 1.89957 -1.02524)
(-3.17195e-16 1.95584 -0.0427465)
(8.2753e-18 0.5844 0.41977)
(7.06076e-18 0.589697 -0.0447139)
(-8.1877e-17 0.729415 0.200706)
(-1.80207e-15 2.19362 4.65554)
(-5.25197e-15 4.14667 12.0331)
(-6.62332e-15 3.89105 14.503)
(1.11524e-14 3.18703 8.5152)
(5.34155e-15 -9.4138 5.79367)
(1.76093e-15 -6.57475 3.7018)
(-1.45339e-15 -8.22203 4.82762)
(-4.93182e-15 -3.23246 6.7202)
(-5.95135e-15 -0.309846 5.53976)
(-4.76896e-15 2.04803 4.14923)
(-3.34384e-15 2.79324 1.19605)
(-1.18278e-15 0.250983 -0.581349)
(-1.89225e-15 -1.71105 -3.00694)
(-2.20101e-15 -0.24841 -2.06845)
(-1.29673e-15 1.71099 -1.21149)
(-1.68706e-16 1.80285 -0.0778575)
(2.77398e-18 0.581484 0.338213)
(3.06e-19 0.64464 -0.0218479)
(2.00559e-17 0.415825 -0.304859)
(-3.14744e-16 1.13121 1.23014)
(-1.63399e-15 2.94787 7.38963)
(-3.43504e-15 3.73125 13.1121)
(-4.27728e-15 4.32426 12.287)
(5.24536e-15 -10.454 6.06382)
(1.59269e-15 -6.34947 3.6585)
(-1.39455e-15 -8.57929 4.42957)
(-4.93995e-15 -3.24522 6.48354)
(-5.53735e-15 -0.114629 5.13774)
(-3.99187e-15 2.50424 4.00426)
(-2.79831e-15 3.20269 0.907323)
(-7.15803e-16 0.649725 0.47601)
(-1.70792e-15 -1.4954 -2.69149)
(-2.18435e-15 -0.401202 -2.08109)
(-1.05392e-15 1.51173 -1.26663)
(-5.67293e-17 1.64365 -0.0196278)
(1.05094e-18 0.578431 0.270726)
(-3.50203e-19 0.692645 -0.0202423)
(-1.40844e-18 0.500388 -0.180571)
(2.73461e-17 0.614029 -0.79734)
(-7.54455e-16 1.7083 2.05847)
(-2.45929e-15 2.89591 9.36512)
(-3.21242e-15 4.79861 13.2344)
(4.99512e-15 -11.5186 5.87942)
(1.48272e-15 -6.06039 3.70563)
(-1.32668e-15 -8.92838 4.00139)
(-4.82076e-15 -3.25032 6.26873)
(-4.62443e-15 0.0503653 4.85986)
(-2.95741e-15 2.95902 4.00422)
(-1.90986e-15 3.5274 0.775409)
(-3.07896e-16 0.974241 1.15825)
(-1.47531e-15 -1.20863 -2.38009)
(-2.08735e-15 -0.52289 -1.99566)
(-8.28815e-16 1.30207 -1.18906)
(-8.81461e-19 1.49047 0.0760128)
(-1.81513e-20 0.58783 0.210123)
(-2.92441e-20 0.726883 -0.0204343)
(-6.00409e-19 0.568488 -0.183094)
(3.11116e-18 0.709264 -0.388541)
(1.05356e-16 0.949535 -0.921517)
(-1.21312e-15 1.45336 3.56904)
(-3.01541e-15 4.23531 10.5397)
(4.58612e-15 -12.5906 5.31146)
(1.45069e-15 -5.74017 3.92302)
(-1.23656e-15 -9.26094 3.5516)
(-4.5916e-15 -3.26201 6.08567)
(-3.63145e-15 0.171887 4.6706)
(-2.12562e-15 3.40086 4.08798)
(-9.40975e-16 3.79799 0.846147)
(-1.87511e-17 1.27222 1.70752)
(-1.23047e-15 -0.88075 -1.95579)
(-1.92998e-15 -0.624433 -1.74004)
(-6.28757e-16 1.09965 -1.00779)
(1.19137e-17 1.35672 0.141202)
(-4.62981e-19 0.607472 0.152473)
(4.10977e-20 0.757601 -0.022596)
(2.22309e-19 0.602403 -0.172438)
(-2.75953e-18 0.748643 -0.354952)
(-8.25326e-18 0.988749 -0.375447)
(-5.54618e-17 0.415956 -0.649917)
(-1.99126e-15 3.34352 4.71349)
(4.02467e-15 -13.6421 4.39909)
(1.49334e-15 -5.42235 4.3204)
(-1.10235e-15 -9.56103 3.09076)
(-4.31598e-15 -3.28932 5.93847)
(-3.02905e-15 0.249826 4.48421)
(-1.75814e-15 3.81326 4.1838)
(-1.65774e-16 4.03207 1.04332)
(1.01362e-16 1.5242 2.12004)
(-9.51197e-16 -0.535174 -1.20903)
(-1.72762e-15 -0.687607 -1.28995)
(-4.51087e-16 0.935387 -0.794901)
(9.6542e-18 1.2497 0.141822)
(-1.83152e-19 0.631017 0.103556)
(-7.72806e-21 0.781559 -0.0251473)
(-1.42167e-20 0.641215 -0.166154)
(8.82546e-19 0.763119 -0.303561)
(-2.73135e-18 0.930953 -0.470204)
(4.40238e-18 0.521119 0.0873842)
(-8.81894e-17 0.259714 -2.70227)
(3.33731e-15 -14.6904 3.18413)
(1.57485e-15 -5.12807 4.84109)
(-9.02694e-16 -9.82473 2.61592)
(-4.0446e-15 -3.32886 5.83437)
(-2.91471e-15 0.294261 4.24886)
(-1.8337e-15 4.18863 4.19971)
(2.85232e-16 4.23436 1.24853)
(1.08438e-16 1.69826 2.43313)
(-6.6684e-16 -0.207339 -0.182375)
(-1.53591e-15 -0.68247 -0.813627)
(-2.94828e-16 0.824985 -0.618243)
(8.67072e-18 1.16665 0.100544)
(-3.75348e-21 0.651499 0.0684922)
(2.60741e-22 0.801284 -0.0288705)
(-1.041e-20 0.670267 -0.157748)
(-2.06136e-19 0.799486 -0.26376)
(1.84318e-18 0.905905 -0.443943)
(-5.45181e-18 0.841835 -0.227634)
(-2.98715e-18 1.01704 -3.44124)
(2.57864e-15 -15.6496 1.73611)
(1.62831e-15 -4.89453 5.45023)
(-6.32235e-16 -10.037 2.09631)
(-3.78753e-15 -3.37142 5.7844)
(-3.16905e-15 0.322229 3.85776)
(-2.1631e-15 4.52984 3.9744)
(4.25514e-16 4.40662 1.35735)
(3.44161e-17 1.78652 2.54638)
(-5.56522e-16 0.0888205 0.73537)
(-1.33363e-15 -0.585031 -0.486336)
(-1.61429e-16 0.754928 -0.485711)
(8.12743e-18 1.10102 0.0619708)
(-1.28344e-20 0.667259 0.0445776)
(1.05201e-23 0.817797 -0.0325684)
(4.14224e-21 0.696114 -0.149212)
(2.95671e-20 0.822441 -0.230679)
(-3.45825e-19 0.913619 -0.413985)
(-3.12804e-18 0.945955 -0.359623)
(5.00792e-17 0.889526 -0.789173)
(1.82967e-15 -16.6706 0.17652)
(1.58116e-15 -4.69148 6.11664)
(-3.14846e-16 -10.2281 1.48174)
(-3.51283e-15 -3.39184 5.7789)
(-3.54974e-15 0.361921 3.09567)
(-2.48735e-15 4.83169 3.28759)
(3.48597e-16 4.54114 1.31506)
(-2.23947e-17 1.83496 2.43523)
(-4.01218e-16 0.348979 0.94776)
(-1.03626e-15 -0.425836 -0.21554)
(-6.41164e-17 0.71173 -0.383771)
(5.18111e-18 1.04911 0.0451816)
(-1.2871e-20 0.680334 0.0265079)
(-4.34595e-22 0.83154 -0.0352391)
(-7.29969e-22 0.717476 -0.13872)
(-3.31453e-21 0.849214 -0.202242)
(1.56482e-19 0.921257 -0.397504)
(-2.35358e-18 1.00457 -0.306724)
(3.14325e-17 1.00872 -1.38463)
(1.17646e-15 -17.4003 -1.39839)
(1.39186e-15 -4.59321 7.03892)
(-6.67425e-18 -10.3305 0.720597)
(-3.16655e-15 -3.3567 5.82544)
(-3.73398e-15 0.455644 1.67257)
(-2.52669e-15 5.05576 2.02059)
(1.73464e-16 4.59441 1.09761)
(-1.54908e-17 1.86532 2.2305)
(-1.32149e-16 0.562198 0.955843)
(-6.63835e-16 -0.273563 0.155495)
(-1.38606e-17 0.701495 -0.330266)
(2.01795e-18 1.00722 0.0450528)
(-3.06076e-22 0.692578 0.0110881)
(-2.48571e-22 0.842688 -0.0359822)
(3.13783e-23 0.735642 -0.127087)
(-7.38137e-22 0.872129 -0.179333)
(1.52586e-20 0.932051 -0.364996)
(-1.20409e-18 1.08353 -0.3127)
(2.68465e-17 1.05973 -0.83263)
(6.78635e-16 -18.6924 -2.86066)
(1.08211e-15 -4.38039 8.15869)
(2.24822e-16 -10.4639 -0.187511)
(-2.69211e-15 -3.17568 5.92568)
(-3.26074e-15 0.546005 -0.297635)
(-2.15205e-15 5.15829 0.387843)
(1.59183e-17 4.51057 0.705357)
(-7.02339e-18 1.85592 1.97892)
(-2.33169e-17 0.706273 1.01104)
(-2.78622e-16 -0.138108 0.595166)
(2.74765e-19 0.736054 -0.320268)
(4.16547e-19 0.971234 0.055863)
(7.35986e-22 0.706028 -0.00231669)
(-5.25151e-23 0.852589 -0.0343568)
(2.59595e-23 0.752597 -0.114698)
(3.46023e-24 0.895021 -0.160924)
(1.8369e-20 0.945109 -0.337271)
(-8.46753e-19 1.10986 -0.280233)
(2.20508e-17 1.11552 -0.69469)
(3.5114e-16 -18.7496 -4.21736)
(7.22874e-16 -4.47324 10.1514)
(3.27722e-16 -10.2909 -1.22305)
(-2.0836e-15 -2.92309 6.29874)
(-2.19299e-15 0.801912 -1.45375)
(-1.69136e-15 5.14561 -1.12001)
(-8.82456e-17 4.28548 0.187865)
(-5.75781e-18 1.80025 1.66998)
(2.65017e-18 0.805037 0.931184)
(-1.52097e-17 0.0487514 0.771148)
(-1.18424e-19 0.795916 -0.307545)
(-9.31061e-21 0.938112 0.073328)
(-2.30877e-22 0.720013 -0.0131471)
(2.57392e-24 0.860056 -0.0304273)
(-9.90565e-24 0.767885 -0.102181)
(-9.26822e-23 0.915601 -0.146354)
(7.61265e-21 0.95711 -0.304384)
(-4.96443e-19 1.15085 -0.256579)
(1.77118e-17 1.14167 -0.647865)
(1.49356e-16 -21.8636 -5.19838)
(3.86532e-16 -3.80776 11.8384)
(3.01722e-16 -10.4593 -2.24114)
(-1.45055e-15 -2.55889 6.55162)
(-1.98035e-15 1.47526 -1.6029)
(-1.91519e-15 5.07935 -2.29422)
(-2.77588e-16 3.96062 -0.392364)
(-8.16708e-18 1.69644 1.34651)
(1.53466e-18 0.868232 0.762372)
(-9.90427e-19 0.169233 0.554852)
(6.13247e-20 0.839367 -0.280872)
(1.22701e-20 0.903485 0.0902187)
(-1.20238e-23 0.728845 -0.0209106)
(-5.88848e-24 0.85975 -0.0247581)
(2.26025e-24 0.776372 -0.0902137)
(-1.80557e-23 0.927914 -0.133949)
(3.09408e-21 0.962925 -0.270625)
(-2.57782e-19 1.16437 -0.233235)
(1.37121e-17 1.16068 -0.465157)
(7.37536e-17 -18.6032 -6.05857)
(1.25773e-16 -4.72596 16.0288)
(2.0799e-16 -9.40868 -3.39005)
(-9.96968e-16 -2.67608 7.03834)
(-3.34538e-15 2.26429 -2.34188)
(-3.35143e-15 5.04323 -3.58851)
(-7.98606e-16 3.55526 -1.03606)
(-1.0684e-17 1.55455 1.02665)
(1.53725e-18 0.930544 0.622769)
(-4.14634e-20 0.275032 0.415197)
(-1.74377e-20 0.872555 -0.249185)
(-2.26827e-21 0.879831 0.101267)
(1.65851e-23 0.745293 -0.0257695)
(1.21993e-24 0.865448 -0.01846)
(-2.58645e-25 0.791335 -0.0796558)
(-3.33331e-24 0.945693 -0.122636)
(9.55797e-22 0.975018 -0.238062)
(-1.16324e-19 1.1798 -0.210339)
(9.37915e-18 1.18043 -0.365285)
(-1.54912e-16 -30.5951 -5.42459)
(-1.05677e-16 -1.6274 15.9221)
(3.24324e-17 -10.3965 -3.83719)
(-7.36114e-16 -2.08935 6.87009)
(-4.64773e-15 3.3813 -4.03512)
(-5.15413e-15 4.98775 -5.33169)
(-1.61967e-15 3.06445 -1.7153)
(-1.58919e-17 1.38807 0.736226)
(8.29713e-19 1.00271 0.501849)
(-7.48712e-20 0.393588 0.320909)
(2.11396e-21 0.920061 -0.216088)
(4.84668e-22 0.88429 0.102631)
(-6.36387e-25 0.785873 -0.0286484)
(-2.56674e-25 0.894129 -0.012954)
(-9.0747e-27 0.82984 -0.0710183)
(-6.57887e-25 0.986344 -0.111128)
(1.98592e-22 1.01237 -0.206936)
(-4.07762e-20 1.22233 -0.188387)
(5.11686e-18 1.21914 -0.342208)
(4.15216e-16 -9.573 -7.68884)
(-1.11047e-17 -7.31284 27.767)
(2.05383e-16 -6.10276 -6.03922)
(-6.29219e-16 -3.05769 8.20981)
(-3.00114e-15 4.46406 -6.05859)
(-4.99805e-15 4.68261 -6.45771)
(-2.01568e-15 2.36424 -1.88775)
(-2.32977e-17 1.09922 0.54976)
(1.77485e-19 0.985906 0.397246)
(-1.67216e-20 0.438144 0.236504)
(8.09616e-23 0.889696 -0.181307)
(9.03007e-23 0.830086 0.0929735)
(-2.12639e-24 0.759784 -0.0302754)
(-4.8475e-26 0.854771 -0.00934884)
(1.08425e-26 0.802233 -0.0639023)
(2.68067e-26 0.953336 -0.0982532)
(3.01148e-23 0.97801 -0.17604)
(-1.15477e-20 1.17881 -0.163005)
(2.51372e-18 1.17465 -0.209372)
(-2.31868e-15 -64.1438 5.62178)
(-8.98204e-16 9.18544 9.21214)
(-1.2687e-15 -12.5851 -1.88616)
(-3.18671e-16 -0.0165424 7.5173)
(1.4809e-15 5.2377 -6.8455)
(-1.91935e-15 3.88661 -4.53064)
(-1.18389e-15 1.47392 -0.55)
(-5.00159e-18 0.777669 0.487535)
(-7.71542e-20 0.888689 0.325953)
(3.42602e-21 0.410677 0.169175)
(1.2773e-22 0.793919 -0.153213)
(-1.99996e-23 0.718345 0.078127)
(8.04452e-25 0.671642 -0.0309707)
(5.96396e-27 0.754933 -0.00863806)
(-1.69015e-27 0.71288 -0.0598332)
(9.75338e-27 0.853775 -0.0877969)
(-5.73483e-26 0.874192 -0.151341)
(-8.58276e-22 1.05319 -0.13706)
(2.95411e-19 1.04883 -0.183609)
(9.06867e-15 49.7069 -43.2751)
(4.28455e-15 -25.0317 64.6959)
(5.22536e-15 5.32774 -17.6345)
(-8.92439e-16 -6.15931 4.6314)
(4.54697e-15 7.7877 -5.84212)
(7.45822e-16 4.09279 0.499994)
(-4.69667e-17 1.58679 1.27863)
(4.21902e-18 1.21189 0.39989)
(-4.23625e-20 1.2803 0.262114)
(1.76767e-21 0.706817 0.123535)
(1.15279e-22 1.13068 -0.123534)
(-4.4976e-25 1.01662 0.0618354)
(-1.71725e-25 0.990455 -0.0286858)
(1.04547e-28 1.08231 -0.0106743)
(-4.92979e-28 1.03938 -0.0566045)
(-3.6939e-27 1.2163 -0.0786124)
(-1.38857e-24 1.24116 -0.127311)
(5.5169e-22 1.46102 -0.108305)
(-1.50361e-19 1.45788 -0.0351477)
(-3.80533e-14 -184.899 167.938)
(-1.00976e-14 37.1131 -62.5368)
(-4.97702e-14 -24.0893 59.2482)
(7.65598e-15 6.63573 -11.1371)
(3.21157e-15 8.88158 -3.22602)
(2.31331e-16 3.8505 2.10661)
(5.18921e-17 2.31122 0.6674)
(-1.07059e-18 1.54015 0.176046)
(8.04692e-21 1.45534 0.1045)
(-2.71986e-22 0.868229 0.0505543)
(-2.10437e-23 1.26623 -0.0479151)
(-3.86588e-25 1.15007 0.025582)
(2.11327e-26 1.13042 -0.013225)
(7.11134e-28 1.22081 -0.00729745)
(2.98644e-28 1.18685 -0.0280978)
(7.93355e-28 1.37275 -0.037137)
(4.19885e-25 1.41021 -0.0554875)
(-1.30922e-22 1.64421 -0.0444891)
(3.20711e-20 1.65152 -0.0972964)
(-3.04486e-18 5.24706 9.60375)
(-5.95413e-15 9.84468 16.8225)
(-4.88669e-15 9.96062 17.0352)
(-4.97708e-15 9.69527 16.3326)
(-4.73796e-15 9.64836 16.1647)
(-6.6172e-15 9.69809 16.1212)
(-5.31033e-15 9.71748 16.0961)
(-4.82696e-15 9.74868 16.0698)
(-4.61456e-15 9.75453 16.049)
(-4.97166e-15 9.78554 16.0478)
(-4.90657e-15 9.76856 16.0259)
(-4.70458e-15 9.69333 15.8303)
(-4.46682e-15 9.74049 15.9796)
(-4.79148e-15 9.74888 16.0443)
(-4.93251e-15 9.73612 16.0726)
(-4.57996e-15 9.69338 16.1169)
(-4.61416e-15 9.68369 16.1194)
(-4.58965e-15 9.79508 16.5368)
(-4.45538e-15 10.2932 17.1884)
(-6.48612e-15 6.34432 11.0767)
(1.07862e-16 4.86412 8.16323)
(-5.05059e-15 9.25359 15.8201)
(-4.02021e-15 9.08965 15.5605)
(-3.89767e-15 8.78154 15.0273)
(-3.8343e-15 8.76759 15.035)
(-5.71746e-15 8.80592 15.0674)
(-3.82293e-15 8.8124 15.0997)
(-3.95654e-15 8.83599 15.1211)
(-3.88095e-15 8.8485 15.1525)
(-4.08977e-15 8.8647 15.1758)
(-4.17008e-15 8.88258 15.2101)
(-3.83932e-15 8.92207 15.2809)
(-4.0107e-15 8.93457 15.2784)
(-3.9654e-15 8.93766 15.306)
(-4.20725e-15 8.96052 15.3329)
(-3.66145e-15 8.95499 15.3684)
(-4.14451e-15 8.98266 15.3944)
(-3.95264e-15 9.17096 15.7948)
(-3.95198e-15 9.54701 16.4027)
(-5.67875e-15 5.63525 9.81194)
(-7.9712e-18 5.53234 9.63124)
(-2.02586e-15 9.60971 16.4387)
(-1.54785e-15 9.29189 16.017)
(-1.22919e-15 9.05477 15.5437)
(-1.55135e-15 9.02107 15.5321)
(-3.73456e-15 9.03975 15.5306)
(-1.78975e-15 9.02776 15.5359)
(-2.05486e-15 9.03517 15.5315)
(-1.95407e-15 9.02841 15.5351)
(-1.96056e-15 9.03254 15.5362)
(-1.88639e-15 9.02963 15.5391)
(-1.78632e-15 9.02325 15.5345)
(-1.99736e-15 9.02577 15.5463)
(-1.8241e-15 9.0229 15.5581)
(-1.70009e-15 9.02945 15.5616)
(-1.67479e-15 9.01329 15.5733)
(-1.85025e-15 9.03095 15.5736)
(-1.68839e-15 9.20666 15.9569)
(-1.88914e-15 9.59778 16.5521)
(-3.0841e-15 5.76051 10.1093)
(-7.0323e-19 5.58845 9.62647)
(4.39125e-16 9.47047 16.2569)
(3.39308e-16 9.11597 15.7231)
(3.52589e-16 8.89923 15.3093)
(3.43849e-16 8.87916 15.3185)
(-2.29768e-15 8.89873 15.3268)
(-1.77202e-15 8.88999 15.3403)
(-1.94636e-15 8.89909 15.344)
(-1.97335e-15 8.89497 15.355)
(-1.93257e-15 8.90009 15.3611)
(-1.93396e-15 8.89937 15.3709)
(-1.83687e-15 8.90284 15.3818)
(-1.74373e-15 8.90517 15.388)
(-1.73405e-15 8.90237 15.3995)
(-1.87015e-15 8.91001 15.405)
(-1.76629e-15 8.89779 15.4164)
(-1.64368e-15 8.91429 15.4191)
(-1.45357e-15 9.09515 15.7906)
(-1.68522e-15 9.47966 16.4107)
(-3.02843e-15 5.78537 10.1144)
(7.73923e-19 5.85589 10.1362)
(-9.74436e-17 9.5259 16.3477)
(-7.90379e-17 9.11209 15.734)
(-8.07553e-17 8.92446 15.3622)
(-8.17033e-17 8.90309 15.3724)
(5.23811e-16 8.91837 15.3749)
(4.07673e-16 8.90673 15.384)
(4.74556e-16 8.91249 15.384)
(4.43911e-16 8.90557 15.3908)
(4.649e-16 8.90791 15.3934)
(4.2939e-16 8.90431 15.399)
(4.25794e-16 8.90355 15.4032)
(4.4627e-16 8.90331 15.4082)
(4.35817e-16 8.89967 15.4159)
(4.12023e-16 8.9041 15.4184)
(3.98424e-16 8.89162 15.4257)
(4.24823e-16 8.90437 15.4229)
(4.04703e-16 9.06615 15.76)
(4.39914e-16 9.47569 16.4224)
(6.76297e-16 5.95719 10.4305)
(-3.29762e-19 6.0237 10.4048)
(2.30077e-17 9.48988 16.3006)
(1.94269e-17 9.04768 15.6233)
(1.83387e-17 8.88184 15.2958)
(2.04174e-17 8.86543 15.3106)
(-1.23418e-16 8.87977 15.3142)
(-1.04313e-16 8.86962 15.3243)
(-1.095e-16 8.87548 15.3257)
(-1.04319e-16 8.86952 15.3336)
(-1.093e-16 8.87217 15.3371)
(-1.06757e-16 8.86903 15.3437)
(-9.71985e-17 8.86938 15.3491)
(-1.05585e-16 8.86896 15.3544)
(-1.09338e-16 8.86624 15.3621)
(-9.90223e-17 8.87002 15.3655)
(-9.83601e-17 8.85976 15.3731)
(-1.05492e-16 8.86952 15.3692)
(-1.02376e-16 9.01384 15.6693)
(-1.03476e-16 9.44535 16.3794)
(-1.50862e-16 6.12235 10.7092)
(1.0618e-19 6.22498 10.7561)
(-5.49995e-18 9.48311 16.2916)
(-4.7563e-18 9.01328 15.5667)
(-4.36989e-18 8.86989 15.2785)
(-5.04853e-18 8.85515 15.2948)
(2.90657e-17 8.86774 15.297)
(2.57863e-17 8.8577 15.3058)
(2.47461e-17 8.86264 15.3068)
(2.44386e-17 8.85661 15.3137)
(2.52875e-17 8.85868 15.3165)
(2.66964e-17 8.85518 15.3224)
(2.26772e-17 8.85526 15.3268)
(2.47269e-17 8.85413 15.3318)
(2.58209e-17 8.85184 15.3383)
(2.39925e-17 8.8544 15.3416)
(2.37838e-17 8.84563 15.3484)
(2.52475e-17 8.85264 15.343)
(2.45151e-17 8.97797 15.6053)
(2.38406e-17 9.4275 16.3503)
(3.32161e-17 6.30623 11.028)
(-2.956e-20 6.4102 11.0685)
(1.27974e-18 9.4561 16.2516)
(1.14247e-18 8.97012 15.4924)
(1.06523e-18 8.8473 15.243)
(1.21289e-18 8.83501 15.2605)
(-6.90439e-18 8.8464 15.2625)
(-6.12044e-18 8.83726 15.2711)
(-5.73762e-18 8.84184 15.2725)
(-5.69951e-18 8.83638 15.2793)
(-5.90296e-18 8.83838 15.2823)
(-6.44273e-18 8.8351 15.2883)
(-5.58449e-18 8.8355 15.2926)
(-5.78137e-18 8.83412 15.2979)
(-6.03259e-18 8.83261 15.3039)
(-5.84348e-18 8.83435 15.3078)
(-5.62664e-18 8.82743 15.3145)
(-5.89062e-18 8.83219 15.309)
(-5.7683e-18 8.93992 15.5352)
(-5.56951e-18 9.40022 16.3042)
(-7.42618e-18 6.48678 11.3375)
(7.74401e-21 6.59972 11.3925)
(-2.90717e-19 9.42928 16.21)
(-2.70983e-19 8.93377 15.4303)
(-2.57827e-19 8.83062 15.217)
(-2.85143e-19 8.81986 15.2348)
(1.62568e-18 8.82998 15.2363)
(1.44283e-18 8.82149 15.2442)
(1.35694e-18 8.82552 15.2456)
(1.34402e-18 8.82046 15.252)
(1.39018e-18 8.8222 15.255)
(1.51205e-18 8.81901 15.2607)
(1.38688e-18 8.81951 15.2647)
(1.36436e-18 8.81781 15.27)
(1.40079e-18 8.81693 15.2754)
(1.41417e-18 8.81775 15.2797)
(1.32528e-18 8.81249 15.2859)
(1.37702e-18 8.81528 15.2807)
(1.35388e-18 8.90635 15.4727)
(1.34877e-18 9.37017 16.2524)
(1.69922e-18 6.66864 11.6505)
(-2.01553e-21 6.78566 11.7086)
(6.59535e-20 9.39435 16.1551)
(6.38892e-20 8.89783 15.3685)
(6.14056e-20 8.81286 15.1892)
(6.66571e-20 8.80348 15.2068)
(-3.76782e-19 8.81247 15.208)
(-3.42461e-19 8.80477 15.2155)
(-3.22595e-19 8.80834 15.2172)
(-3.21066e-19 8.80379 15.2233)
(-3.28855e-19 8.80533 15.2263)
(-3.4792e-19 8.80236 15.2319)
(-3.37589e-19 8.803 15.2357)
(-3.22967e-19 8.8011 15.2411)
(-3.25704e-19 8.80086 15.2461)
(-3.3637e-19 8.80087 15.2508)
(-3.13224e-19 8.79726 15.2567)
(-3.24359e-19 8.79837 15.2524)
(-3.18459e-19 8.87428 15.4125)
(-3.30814e-19 9.334 16.1901)
(-3.92801e-19 6.84881 11.9601)
(5.30847e-22 6.97117 12.0246)
(-1.52285e-20 9.3548 16.0919)
(-1.50342e-20 8.86501 15.3122)
(-1.44779e-20 8.79677 15.1641)
(-1.57049e-20 8.78838 15.181)
(8.68114e-20 8.7963 15.1821)
(8.12942e-20 8.78932 15.189)
(7.65449e-20 8.7924 15.1908)
(7.69106e-20 8.78835 15.1966)
(7.7798e-20 8.78962 15.1996)
(7.91379e-20 8.78689 15.205)
(8.02674e-20 8.78758 15.2086)
(7.62997e-20 8.78552 15.2141)
(7.64728e-20 8.78584 15.2186)
(7.89211e-20 8.78506 15.2237)
(7.41218e-20 8.78301 15.2291)
(7.6832e-20 8.78264 15.2261)
(7.49757e-20 8.84484 15.3569)
(8.00861e-20 9.29285 16.1192)
(9.08714e-20 7.0282 12.2685)
(-1.3998e-22 7.15504 12.3375)
(3.58792e-21 9.30929 16.0185)
(3.54074e-21 8.83428 15.2594)
(3.40936e-21 8.78113 15.1399)
(3.7418e-21 8.77353 15.1556)
(-2.01284e-20 8.78046 15.1566)
(-1.91814e-20 8.77422 15.1631)
(-1.81187e-20 8.77682 15.1651)
(-1.8318e-20 8.77329 15.1705)
(-1.83607e-20 8.77428 15.1736)
(-1.80016e-20 8.77186 15.1787)
(-1.87764e-20 8.77254 15.1823)
(-1.79872e-20 8.77041 15.1878)
(-1.80965e-20 8.77122 15.1918)
(-1.84333e-20 8.76973 15.1974)
(-1.75224e-20 8.76915 15.2021)
(-1.82335e-20 8.76747 15.2007)
(-1.75843e-20 8.81758 15.305)
(-1.90573e-20 9.24621 16.039)
(-2.09654e-20 7.20644 12.5747)
(3.63357e-23 7.3378 12.6486)
(-8.53205e-22 9.2584 15.9358)
(-8.35861e-22 8.80611 15.2109)
(-8.0497e-22 8.76636 15.1171)
(-8.96202e-22 8.75935 15.1314)
(4.71937e-21 8.76537 15.1324)
(4.50501e-21 8.75984 15.1384)
(4.28332e-21 8.76196 15.1406)
(4.33222e-21 8.75896 15.1456)
(4.31915e-21 8.75963 15.1488)
(4.14302e-21 8.75756 15.1536)
(4.35712e-21 8.75816 15.1572)
(4.23814e-21 8.75605 15.1626)
(4.28192e-21 8.75724 15.1663)
(4.30796e-21 8.75513 15.1722)
(4.14093e-21 8.7559 15.1763)
(4.32134e-21 8.75304 15.1767)
(4.09765e-21 8.79273 15.2572)
(4.50521e-21 9.19428 15.9497)
(4.81366e-21 7.38371 12.8791)
(-9.21534e-24 7.51934 12.9575)
(2.02277e-22 9.20191 15.8434)
(1.97809e-22 8.78031 15.1666)
(1.90204e-22 8.75222 15.0953)
(2.13974e-22 8.74564 15.1081)
(-1.11543e-21 8.75084 15.1091)
(-1.05907e-21 8.74602 15.1147)
(-1.0118e-21 8.74766 15.117)
(-1.02113e-21 8.7452 15.1216)
(-1.01377e-21 8.74554 15.1249)
(-9.70743e-22 8.74385 15.1295)
(-1.00898e-21 8.74431 15.133)
(-9.99183e-22 8.74233 15.1383)
(-1.00762e-21 8.74376 15.1417)
(-1.00766e-21 8.74117 15.1479)
(-9.80019e-22 8.74315 15.1514)
(-1.02223e-21 8.73923 15.1537)
(-9.51049e-22 8.77023 15.2133)
(-1.07079e-21 9.13694 15.8513)
(-1.09857e-21 7.55999 13.1816)
(2.29136e-24 7.69989 13.2645)
(-4.75575e-23 9.13992 15.7414)
(-4.68675e-23 8.75695 15.1265)
(-4.48192e-23 8.73878 15.0745)
(-5.06825e-23 8.73251 15.0858)
(2.6415e-22 8.73697 15.0868)
(2.50221e-22 8.73282 15.0919)
(2.38851e-22 8.73399 15.0945)
(2.40962e-22 8.73205 15.0987)
(2.3797e-22 8.73206 15.1021)
(2.31151e-22 8.73077 15.1064)
(2.34004e-22 8.73101 15.1099)
(2.35643e-22 8.72928 15.115)
(2.35798e-22 8.73077 15.1183)
(2.35597e-22 8.72792 15.1246)
(2.32371e-22 8.73089 15.1275)
(2.41748e-22 8.72601 15.1316)
(2.20896e-22 8.75008 15.1733)
(2.5706e-22 9.07421 15.7438)
(2.49446e-22 7.73531 13.4819)
(-5.63517e-25 7.87976 13.5702)
(1.11113e-23 9.0725 15.6298)
(1.10945e-23 8.73614 15.0909)
(1.05175e-23 8.72618 15.055)
(1.19192e-23 8.72014 15.0647)
(-6.24076e-23 8.72388 15.0658)
(-5.93751e-23 8.72045 15.0704)
(-5.63647e-23 8.7211 15.0731)
(-5.70348e-23 8.71966 15.077)
(-5.59823e-23 8.71937 15.0804)
(-5.55313e-23 8.71842 15.0844)
(-5.44719e-23 8.71839 15.088)
(-5.55325e-23 8.71701 15.0927)
(-5.50604e-23 8.71831 15.096)
(-5.50274e-23 8.71547 15.1022)
(-5.51246e-23 8.71909 15.1046)
(-5.72051e-23 8.71341 15.1105)
(-5.14974e-23 8.73225 15.1373)
(-6.21126e-23 9.00613 15.6274)
(-5.65085e-23 7.90969 13.7798)
(1.38205e-25 8.05938 13.8752)
(-2.59383e-24 8.99947 15.5081)
(-2.61962e-24 8.7178 15.0597)
(-2.46219e-24 8.71455 15.0366)
(-2.79663e-24 8.70877 15.0447)
(1.46914e-23 8.71173 15.0461)
(1.40873e-23 8.70916 15.0501)
(1.33048e-23 8.70929 15.053)
(1.35143e-23 8.7083 15.0564)
(1.32112e-23 8.70781 15.0598)
(1.33566e-23 8.70712 15.0635)
(1.2746e-23 8.70686 15.0672)
(1.30744e-23 8.70588 15.0715)
(1.28788e-23 8.70673 15.0749)
(1.28479e-23 8.70427 15.0809)
(1.3062e-23 8.70799 15.0831)
(1.35228e-23 8.70176 15.0904)
(1.20548e-23 8.71697 15.1052)
(1.50032e-23 8.93308 15.5027)
(1.28042e-23 8.08318 14.0752)
(-3.39217e-26 8.23966 14.1804)
(6.07243e-25 8.92059 15.3748)
(6.16504e-25 8.70165 15.0324)
(5.7648e-25 8.70362 15.0189)
(6.5794e-25 8.6985 15.0253)
(-3.44584e-24 8.70034 15.0269)
(-3.32442e-24 8.69873 15.0302)
(-3.14154e-24 8.69839 15.033)
(-3.19003e-24 8.6977 15.0361)
(-3.12511e-24 8.69712 15.0394)
(-3.19907e-24 8.69657 15.0428)
(-2.99816e-24 8.69617 15.0463)
(-3.07664e-24 8.69556 15.0503)
(-3.0219e-24 8.69586 15.054)
(-3.00146e-24 8.69426 15.0594)
(-3.08755e-24 8.69725 15.0619)
(-3.18325e-24 8.69129 15.0701)
(-2.83036e-24 8.70425 15.0762)
(-3.6038e-24 8.85558 15.3705)
(-2.90608e-24 8.25515 14.3662)
(8.41888e-27 8.42319 14.4926)
(-1.44155e-25 8.83808 15.2311)
(-1.46202e-25 8.69069 15.012)
(-1.36678e-25 8.69522 15.0051)
(-1.5715e-25 8.69182 15.0089)
(8.14001e-25 8.69212 15.0105)
(7.85537e-25 8.69115 15.0126)
(7.4986e-25 8.69035 15.0148)
(7.53938e-25 8.68951 15.0171)
(7.4828e-25 8.68862 15.0197)
(7.69369e-25 8.68775 15.0224)
(7.15929e-25 8.68689 15.0254)
(7.32003e-25 8.68605 15.0287)
(7.17909e-25 8.68543 15.0321)
(7.09437e-25 8.68433 15.0364)
(7.35338e-25 8.68532 15.0397)
(7.51611e-25 8.68103 15.0469)
(6.73301e-25 8.69107 15.0483)
(8.67696e-25 8.77265 15.2324)
(6.65879e-25 8.42326 14.6449)
(-1.76531e-27 8.61058 14.8239)
(2.87656e-26 8.7527 15.0801)
(2.9186e-26 8.69281 15.0032)
(2.72783e-26 8.695 15.0014)
(3.18174e-26 8.69442 15.0021)
(-1.60501e-25 8.69407 15.0026)
(-1.55152e-25 8.69366 15.0031)
(-1.5064e-25 8.69305 15.0038)
(-1.48208e-25 8.69232 15.0046)
(-1.50529e-25 8.69143 15.0056)
(-1.54629e-25 8.69038 15.0067)
(-1.44478e-25 8.68914 15.008)
(-1.46626e-25 8.68772 15.0095)
(-1.43404e-25 8.68604 15.0113)
(-1.41426e-25 8.68417 15.0133)
(-1.4678e-25 8.68208 15.0156)
(-1.48767e-25 8.67892 15.0189)
(-1.35539e-25 8.67938 15.02)
(-1.75242e-25 8.69418 15.0844)
(-1.28258e-25 8.5934 14.8933)
(4.33716e-15 0.269478 -2.67112)
(4.33808e-15 0.0801537 -3.6812)
(2.77128e-15 0.0184971 -3.37914)
(2.39635e-15 0.196808 -3.41634)
(2.0355e-15 0.429541 -3.75169)
(8.37622e-16 0.545855 -0.818163)
(2.15134e-16 -0.349417 3.53578)
(3.59928e-16 -0.422232 2.85545)
(3.93238e-16 -0.569045 2.84969)
(2.06145e-16 -1.18474 4.80399)
(-5.56459e-16 -1.90898 4.86134)
(-8.43855e-16 -1.98532 4.90462)
(-1.82017e-15 -3.19753 7.95241)
(-1.81649e-15 -3.53681 7.11978)
(-2.15766e-15 -4.14578 7.8526)
(-2.40736e-15 -4.31449 8.53017)
(-3.71667e-15 -6.29741 13.3488)
(-3.25178e-15 -6.30683 10.8567)
(-3.84824e-15 -6.94823 11.6408)
(-5.39828e-15 -9.70117 15.8393)
(-3.78237e-15 -8.28509 12.6516)
(-4.52504e-15 -8.67376 12.8355)
(-3.37883e-15 -8.64966 12.589)
(-1.57037e-15 -8.81671 12.661)
(3.31454e-16 -8.86652 12.606)
(1.73831e-15 -8.93585 12.4889)
(2.60342e-15 -8.9252 12.3642)
(3.07622e-15 -8.98769 12.3004)
(4.35712e-15 -8.14656 10.9738)
(3.51782e-15 -8.187 11.9238)
(3.42662e-15 -8.04096 12.2913)
(3.15218e-15 -7.97146 12.5891)
(2.94095e-15 -7.84478 12.8202)
(2.76138e-15 -7.72238 13.0429)
(2.65347e-15 -7.56865 13.2679)
(2.59534e-15 -7.35465 13.4112)
(2.56101e-15 -7.03667 13.1713)
(2.55743e-15 -6.78333 11.8481)
(3.45423e-15 -2.04711 -1.34768)
(2.51597e-15 -5.04567 2.38832)
(2.43686e-15 -3.15456 -1.02782)
(3.28272e-15 -6.41514 1.34363)
(2.6552e-15 -5.16005 -0.0635773)
(1.99838e-15 -4.79385 -0.160059)
(2.62234e-15 -6.23792 -0.376743)
(1.70564e-15 -4.36643 -0.660819)
(2.50803e-15 -5.50152 -1.08821)
(1.89757e-15 -4.71748 -1.70036)
(1.44593e-15 -3.7783 -1.59026)
(1.95819e-15 -4.69492 -2.39839)
(1.16461e-15 -2.73838 -1.96968)
(1.74447e-15 -3.33879 -3.06392)
(1.12306e-15 -2.01279 -2.7013)
(7.13044e-16 -1.04683 -1.86972)
(1.03252e-15 -1.22298 -2.69835)
(3.28723e-16 -0.184879 -1.05819)
(9.8681e-17 0.493626 -0.726597)
(-3.67996e-16 0.542962 1.63206)
(3.89887e-16 0.358622 1.50924)
(-5.39546e-15 0.603223 3.303)
(1.82309e-15 0.361132 -2.28859)
(1.52219e-15 -0.16788 -2.91554)
(2.32696e-15 0.214723 -1.09596)
(2.76077e-15 0.141253 -1.61981)
(2.29478e-15 0.153716 -1.61596)
(7.74105e-16 0.161655 -1.51196)
(4.49448e-16 -0.305375 1.1797)
(9.86844e-16 -0.463572 5.43768)
(1.32038e-15 -0.37824 8.90754)
(1.56759e-15 -0.114552 10.6773)
(1.68771e-15 0.09643 10.1397)
(1.79444e-15 0.191018 8.58723)
(1.90237e-15 0.287955 6.20668)
(1.99247e-15 0.537814 2.33707)
(2.12754e-15 0.668596 -3.47831)
(2.30719e-15 0.641737 -9.8494)
(2.47196e-15 -0.0884696 -15.0985)
(1.78982e-15 -0.957437 -10.7385)
(-1.04708e-15 -0.433123 1.38323)
(3.19161e-15 0.871064 -1.04274)
(3.21223e-15 -0.314802 -3.22249)
(3.83602e-15 -0.0902158 -3.24912)
(3.71117e-15 -0.233549 -3.21432)
(2.03586e-15 -0.178399 -1.47762)
(1.01847e-15 -0.698902 3.62315)
(1.26874e-15 -1.10534 7.19885)
(1.36896e-15 -1.03816 10.342)
(1.28586e-15 -0.667791 12.0206)
(1.18523e-15 -0.0861273 12.1075)
(1.24077e-15 0.332764 11.2325)
(1.41446e-15 0.592252 9.76845)