/*--------------------------------*- C++ -*----------------------------------*\
| =========                 |                                                 |
| \\      /  F ield         | OpenFOAM: The Open Source CFD Toolbox           |
|  \\    /   O peration     | Version:  4.1                                   |
|   \\  /    A nd           | Web:      www.OpenFOAM.org                      |
|    \\/     M anipulation  |                                                 |
\*---------------------------------------------------------------------------*/
FoamFile
{
    version     2.0;
    format      ascii;
    class       volScalarField;
    location    "4";
    object      p;
}
// * * * * * * * * * * * * * * * * * * * * * * * * * * * * * * * * * * * * * //

dimensions      [0 2 -2 0 0 0 0];

internalField   nonuniform List<scalar> 
1280
(
-7.77614
-0.789858
-1.70453
-3.37037
-2.17719
-2.22177
-2.92467
-2.89658
-2.35786
-2.44858
-3.37591
-2.61417
-2.81258
-4.12248
-3.16315
-3.95709
-5.45511
-5.56358
-3.76748
-11.7306
-3.04619
4.18334
6.66223
7.87447
9.93702
13.5033
-5.27556
3.71544
2.83174
4.25715
5.30303
6.022
7.06506
8.04144
9.14338
10.1207
11.7254
12.826
16.5141
14.4604
-36.1166
-16.7226
-9.99067
-7.11469
-0.911717
-0.648735
-0.419721
-0.127314
0.755534
0.9634
0.974885
0.846247
0.00300679
-0.444398
-0.784076
-1.15151
-7.04521
-10.0529
-16.1693
-33.2532
7.16283
9.46239
7.64007
7.71523
6.83481
6.41192
5.80324
5.28704
4.73303
4.28165
3.65128
2.79152
2.82953
-11.243
14.568
13.1808
15.3601
16.0114
3.60307
-9.46367
-14.2763
-8.31208
-6.43906
-7.08258
-4.89482
-3.68015
-4.48352
-3.0422
-2.60228
-3.32436
-2.3579
-2.15938
-2.69507
-2.72621
-2.03112
-1.93942
-3.14986
-1.53082
-0.598634
-7.48871
493.767
-95.5708
45.5176
-11.8851
7.61877
1.03859
4.95554
0.920556
-3.49367
-16.8379
-28.3958
-22.6095
-10.0877
-2.60899
-0.388821
-1.34615
-2.01078
-1.95158
-2.20575
-110.47
-3.12744
-13.3434
-7.34701
-6.17412
-4.15545
-2.77016
-1.30593
-5.34975
-15.6715
-16.872
-9.27029
-2.40988
0.431791
0.189556
-0.819808
-1.30132
-1.04478
-1.16185
95.5319
-27.9264
13.364
-5.61301
4.03233
-0.0399452
0.77858
-2.35099
-9.69513
-15.739
-12.4752
-0.562474
1.28629
1.57103
-0.0226578
-0.777629
-0.846693
-0.34994
-0.259139
16.9245
-16.3131
-1.73272
-8.90823
-3.18931
-3.77748
-2.09125
-4.14776
-12.5992
-17.5884
-19.7166
-5.56818
-0.216988
1.83518
-1.00616
-1.80962
-1.52701
-0.415967
-0.237442
46.4008
-17.6978
7.23257
-5.05683
1.33803
-1.6758
-0.5525
-3.97598
-13.1377
-19.4565
-23.0793
-6.31172
1.8717
3.23904
-3.39793
-5.37753
-2.59704
-0.206225
-0.292295
36.2514
-21.3272
2.30884
-7.97292
-1.07728
-2.90519
-1.26648
-4.08631
-12.464
-21.6848
-23.3756
-4.7394
7.56121
6.24783
-6.47005
-10.731
-4.13574
1.40909
0.69103
41.8256
-21.0316
5.87249
-6.34636
0.646031
-1.96906
-0.541503
-3.35945
-10.8387
-22.2952
-21.5917
-2.73858
15.7609
8.91782
-7.05682
-12.4752
-4.47914
1.12932
-0.347099
41.0116
-24.0366
4.88575
-7.37198
0.143539
-2.27944
-0.788997
-3.13193
-9.17894
-20.6036
-18.4314
-0.314132
22.9876
10.2196
-5.85761
-11.9177
-3.08615
8.02675
3.55593
43.7017
-25.1798
6.50348
-6.87097
0.601455
-2.05025
-0.703324
-2.77757
-7.61989
-17.7974
-16.0921
0.70571
23.1596
11.2603
-0.534793
-8.94736
-1.21194
19.9797
20.6006
43.9845
-26.3875
7.24929
-6.83326
0.556687
-2.1133
-0.77292
-2.58467
-6.65161
-15.3852
-13.8327
1.81412
20.2934
10.211
0.882207
-5.83613
5.26044
33.3399
18.026
43.9639
-26.243
7.17006
-6.83077
0.556626
-2.11446
-0.767717
-2.56276
-6.62518
-15.3827
-13.8509
1.77326
20.2115
10.0902
0.954611
-5.80974
5.58302
33.8582
18.4601
43.5395
-24.919
6.49558
-6.8593
0.5717
-2.08566
-0.71865
-2.73294
-7.52425
-17.7624
-16.1525
0.714309
23.6667
11.9895
0.852354
-8.40544
-1.53031
20.4885
21.384
40.8101
-23.8096
4.8936
-7.36577
0.0957214
-2.33112
-0.824326
-3.08575
-9.04192
-20.5682
-18.4893
-0.11578
24.2899
11.3471
-3.74272
-12.4002
-5.10111
7.50907
2.39637
41.7898
-20.8855
5.9062
-6.3125
0.622866
-2.01239
-0.590663
-3.32438
-10.6524
-22.2427
-21.5769
-2.25125
17.9248
9.69269
-6.14955
-12.4206
-6.58705
-0.812371
-1.9367
36.2968
-21.2501
2.34663
-7.95907
-1.10861
-2.95392
-1.32103
-4.05159
-12.2361
-21.7006
-23.4004
-4.27568
8.88103
6.5605
-6.71671
-10.8394
-6.82934
0.338278
0.368729
46.4753
-17.6814
7.29335
-5.02338
1.3389
-1.69722
-0.588407
-3.93538
-12.8757
-19.4409
-23.1332
-6.04156
1.75708
3.06381
-4.46148
-7.51423
-4.82918
-1.1128
-1.08149
17.1154
-16.3036
-1.6841
-8.90837
-3.21255
-3.81769
-2.13859
-4.13326
-12.3685
-17.4939
-19.8006
-5.44595
-0.85964
1.614
-1.7462
-3.00245
-2.72723
-0.976746
-0.767466
95.7533
-27.9692
13.4566
-5.59192
4.06149
-0.0321243
0.770022
-2.34839
-9.59837
-15.6142
-12.5472
-0.471879
0.775266
1.50655
-0.44456
-1.36727
-1.57062
-0.759108
-0.732294
-109.967
-3.14623
-13.3299
-7.36527
-6.19803
-4.19273
-2.81838
-1.33181
-5.33018
-15.5884
-16.8829
-9.02809
-2.20558
0.863243
0.210139
-1.00065
-1.67962
-1.45226
-1.72231
493.523
-95.6879
45.7027
-11.8415
7.66552
1.05836
5.00035
0.953955
-3.48644
-16.7747
-28.4009
-22.3234
-9.39308
-1.58728
-0.0762536
-1.19654
-2.30486
-2.45652
-2.8624
102.388
101.226
100.421
99.3346
98.3457
97.1986
96.273
95.0729
93.7582
92.4878
91.3769
90.26
89.2671
88.2891
87.4158
86.563
85.8358
85.1049
84.6635
83.9342
82.2235
82.6274
82.7971
83.0143
83.1514
83.2353
83.3058
83.2774
83.2541
83.153
83.0611
82.9235
82.7916
82.6374
82.4899
82.3351
82.1945
82.0356
81.9225
81.7479
88.7925
88.6519
88.5595
88.4414
88.3351
88.2138
88.0961
87.9714
87.8416
87.7075
87.5657
87.4248
87.2732
87.1289
86.9742
86.8292
86.6823
86.5351
86.4198
86.2349
85.5569
85.6487
85.6881
85.7393
85.7819
85.8148
85.8492
85.87
85.8929
85.9053
85.9153
85.9214
85.9203
85.9215
85.9128
85.9104
85.8988
85.8938
85.8853
85.8782
86.6177
86.6033
86.6012
86.5841
86.583
86.566
86.5632
86.5479
86.5419
86.5286
86.5192
86.5079
86.496
86.4865
86.4732
86.4662
86.4528
86.4486
86.439
86.4333
86.0749
86.0858
86.1048
86.1008
86.1198
86.1139
86.1281
86.1233
86.1325
86.1297
86.1351
86.134
86.1371
86.1383
86.1398
86.145
86.1442
86.1563
86.1502
86.1677
86.4138
86.3803
86.3853
86.3486
86.3469
86.3135
86.304
86.2738
86.2582
86.23
86.2105
86.1833
86.1617
86.1355
86.1124
86.0893
86.0632
86.0481
86.0084
85.9971
86.7683
86.7121
86.7074
86.6532
86.6358
86.5863
86.5579
86.5104
86.4735
86.4253
86.3822
86.3315
86.2839
86.2295
86.1784
86.1207
86.0652
86.0096
85.9264
85.8659
87.5355
87.457
87.4391
87.3708
87.3375
87.2753
87.2306
87.1699
87.1163
87.0537
86.9927
86.9258
86.8587
86.7846
86.7131
86.629
86.5543
86.462
86.3542
86.2342
88.435
88.3547
88.3329
88.266
88.2303
88.1705
88.1257
88.0682
88.0164
87.9581
87.9001
87.8384
87.7749
87.7065
87.6397
87.5591
87.4936
87.3947
87.3187
87.1679
89.3455
89.2747
89.2548
89.1967
89.1662
89.1164
89.0804
89.0347
88.995
88.9512
88.9085
88.8647
88.8195
88.7732
88.7276
88.673
88.6343
88.5577
88.54
88.411
90.1255
90.0663
90.0498
90.0014
89.9773
89.9374
89.9104
89.8758
89.8476
89.817
89.7883
89.7609
89.7325
89.7068
89.6804
89.6528
89.6348
89.5921
89.6047
89.536
90.7757
90.723
90.7082
90.6657
90.6449
90.6101
90.5871
90.5578
90.5345
90.5096
90.4868
90.4661
90.4445
90.4276
90.4083
90.3937
90.3804
90.3612
90.3674
90.35
91.3261
91.2766
91.2623
91.2231
91.2032
91.1705
91.1483
91.1202
91.0973
91.0732
91.0505
91.0299
91.008
90.9909
90.9706
90.9565
90.9396
90.9259
90.9169
90.9133
91.8104
91.7641
91.7503
91.7138
91.6946
91.6633
91.6416
91.6141
91.5909
91.5664
91.5427
91.5207
91.497
91.4776
91.4543
91.4367
91.4159
91.3976
91.3822
91.3668
92.2406
92.1982
92.1849
92.1514
92.1337
92.1043
92.0839
92.0583
92.036
92.0126
91.9897
91.968
91.9444
91.9247
91.9001
91.882
91.8587
91.8377
91.8214
91.7935
92.6384
92.6001
92.5855
92.5528
92.5365
92.5078
92.4876
92.4632
92.4411
92.4186
92.3964
92.3751
92.3526
92.3336
92.3096
92.2941
92.269
92.2517
92.2358
92.2048
93.0379
93.0102
92.9989
92.9663
92.9533
92.9276
92.9079
92.8853
92.863
92.8401
92.8165
92.7927
92.7676
92.7438
92.7156
92.6955
92.6615
92.6465
92.6204
92.5833
93.3116
93.3024
93.3175
93.2969
93.297
93.2897
93.285
93.2797
93.274
93.2676
93.2599
93.2504
93.2384
93.2237
93.2033
93.1824
93.1439
93.1226
93.0507
92.9938
93.2769
93.2186
93.2567
93.2673
93.2849
93.3026
93.3214
93.3421
93.3648
93.3898
93.4177
93.4487
93.4834
93.5222
93.5657
93.6148
93.6675
93.7361
93.7774
93.9406
705.658
623.104
573.994
517.933
469.116
422.111
378.481
337.349
298.694
262.206
227.684
194.913
163.698
133.953
105.641
78.0197
51.1283
28.4595
3.58112
-30.765
17.3913
-4.34801
3.89271
-6.71145
-9.21504
-15.5536
-20.296
-25.409
-29.9172
-34.035
-37.516
-40.263
-42.1369
-43.0629
-42.9093
-41.7185
-39.8009
-36.7049
-32.5106
-29.5776
17.8061
12.0573
21.1371
15.1484
18.2489
15.9081
15.7493
14.2624
13.1019
11.6531
10.2944
9.06472
8.14586
7.55012
7.24442
7.184
7.17687
7.02379
7.21452
8.13994
33.1013
28.2909
30.7129
24.0594
24.6009
20.266
18.7475
15.8905
13.8492
11.65
9.77529
8.08688
6.67217
5.37923
4.10518
2.78029
1.50284
0.0531157
-2.65682
-5.57103
-18.6373
-24.4549
-23.7368
-29.3616
-29.4126
-33.7366
-35.2019
-38.4207
-40.6687
-43.4621
-45.9535
-48.3921
-50.3479
-51.8001
-52.7831
-53.6442
-54.4307
-54.8051
-55.5454
-54.677
-51.1453
-55.061
-53.2762
-56.8567
-55.6049
-58.4531
-58.3723
-60.2117
-60.9355
-62.184
-63.0436
-63.7077
-63.7953
-63.3186
-62.5287
-61.5485
-60.4264
-58.8346
-57.3695
-53.9845
-37.7911
-38.3401
-35.1724
-36.5099
-33.3985
-33.9645
-31.8333
-31.3064
-29.87
-28.7934
-27.5556
-26.3135
-24.988
-23.5058
-21.8625
-19.9166
-17.7432
-14.957
-12.5297
-9.25259
-7.50506
-6.37905
-3.59512
-3.7958
-0.728712
-0.35799
1.99615
3.20564
5.04089
6.64828
8.34681
10.0446
11.7317
13.4187
15.0546
16.6705
18.1449
19.5737
20.6551
22.0202
12.7494
13.7205
15.3991
15.2837
17.3009
17.4143
18.9844
19.6132
20.7525
21.6243
22.5649
23.4424
24.2709
25.0562
25.749
26.3973
26.8871
27.3689
27.5698
27.9052
22.3058
22.7612
23.7068
23.4863
24.6882
24.497
25.4484
25.5664
26.1786
26.4881
26.9055
27.2446
27.561
27.861
28.0943
28.3503
28.4818
28.72
28.7283
28.9962
26.7117
26.9682
27.6569
27.4222
28.2664
28.0061
28.6912
28.6442
29.068
29.2079
29.4829
29.7008
29.9276
30.1738
30.3813
30.6608
30.8287
31.1829
31.2645
31.7727
30.804
31.2027
31.8971
31.7862
32.5941
32.4811
33.1509
33.2238
33.6864
33.9385
34.3048
34.6494
35.0123
35.411
35.7879
36.2435
36.5988
37.1462
37.39
38.1315
36.8229
37.4692
38.1727
38.2444
39.0853
39.1943
39.9031
40.1891
40.7376
41.1677
41.6638
42.1626
42.6714
43.2122
43.7331
44.3179
44.8099
45.4645
45.8352
46.5938
44.8897
45.6784
46.2523
46.4733
47.2345
47.5022
48.1669
48.5873
49.1501
49.666
50.2091
50.7629
51.3167
51.8928
52.4438
53.0456
53.5524
54.2067
54.5785
55.3295
53.4025
54.2307
54.6274
54.9698
55.5722
55.9179
56.4826
56.9337
57.4494
57.9537
58.466
58.9875
59.5037
60.0351
60.5389
61.0855
61.5397
62.1304
62.4504
63.1492
62.6334
63.2812
63.5247
63.8467
64.2447
64.5185
64.9067
65.2428
65.6077
65.9731
66.3401
66.7148
67.0843
67.4667
67.8266
68.224
68.5464
68.9847
69.2058
69.7288
68.1274
68.7059
68.9549
69.252
69.6126
69.826
70.1399
70.3909
70.6646
70.9302
71.1942
71.4611
71.722
71.9917
72.244
72.5248
72.7508
73.0627
73.2184
73.5887
77.4541
77.5094
77.5785
77.4759
77.5592
77.4068
77.4105
77.3288
77.2768
77.2161
77.1568
77.1041
77.052
77.0131
76.971
76.9549
76.9188
76.9356
76.8984
76.9271
72.265
72.853
72.8803
73.0743
73.5716
73.6869
74.0101
74.0053
74.08
74.0319
73.9928
73.9229
73.8463
73.7663
73.6804
73.6037
73.5221
73.4566
73.3966
73.3253
97.155
96.2503
95.4202
94.0165
92.7969
91.0965
89.7698
88.1578
86.6526
85.2312
83.9572
82.7472
81.6227
80.5679
79.5842
78.6616
77.8416
77.0433
76.5154
75.7317
)
;

boundaryField
{
    outletWall
    {
        type            fixedValue;
        value           uniform 0;
    }
    fineWalls
    {
        type            zeroGradient;
    }
    fineFrontAndBack
    {
        type            zeroGradient;
    }
    fineplugLeft
    {
        type            cyclicAMI;
        value           nonuniform List<scalar> 
20
(
70.0394
71.0336
70.6491
71.0137
71.2745
71.7613
72.2395
72.8267
73.4124
74.1621
74.8417
75.5729
76.8014
84.7261
80.4595
80.664
81.0426
81.6691
81.8172
81.3012
)
;
    }
    fineplugRight
    {
        type            cyclicAMI;
        value           nonuniform List<scalar> 
20
(
62.0179
63.1048
63.1627
63.8163
64.2963
64.9497
65.615
66.3555
67.1444
68.0221
68.9152
69.8804
71.0922
78.2838
75.7908
76.8737
78.2852
79.5384
77.7208
75.8313
)
;
    }
    inletOutletLeft
    {
        type            cyclicAMI;
        value           nonuniform List<scalar> 
20
(
70.0394
71.0336
70.6491
71.0137
71.2745
71.7613
72.2395
72.8267
73.4124
74.1621
74.8417
75.5729
76.8014
84.7261
80.4595
80.664
81.0426
81.6691
81.8172
81.3012
)
;
    }
    inletLeft
    {
        type            zeroGradient;
    }
    inletWallsLeft
    {
        type            zeroGradient;
    }
    inletFacesLeft
    {
        type            zeroGradient;
    }
    inletOutletRight
    {
        type            cyclicAMI;
        value           nonuniform List<scalar> 
20
(
62.0179
63.1048
63.1627
63.8163
64.2963
64.9497
65.615
66.3555
67.1444
68.0221
68.9152
69.8804
71.0922
78.2838
75.7908
76.8737
78.2852
79.5384
77.7208
75.8313
)
;
    }
    inletRight
    {
        type            zeroGradient;
    }
    inletWallsRight
    {
        type            zeroGradient;
    }
    inletFacesRight
    {
        type            zeroGradient;
    }
}


// ************************************************************************* //
