/*--------------------------------*- C++ -*----------------------------------*\
| =========                 |                                                 |
| \\      /  F ield         | OpenFOAM: The Open Source CFD Toolbox           |
|  \\    /   O peration     | Version:  4.1                                   |
|   \\  /    A nd           | Web:      www.OpenFOAM.org                      |
|    \\/     M anipulation  |                                                 |
\*---------------------------------------------------------------------------*/
FoamFile
{
    version     2.0;
    format      ascii;
    class       surfaceScalarField;
    location    "4";
    object      phi;
}
// * * * * * * * * * * * * * * * * * * * * * * * * * * * * * * * * * * * * * //

dimensions      [0 3 -1 0 0 0 0];

internalField   nonuniform List<scalar> 
2360
(
4536.25
4457.63
78.6209
4457.63
4457.64
4670.16
-212.527
4670.16
4670.16
4670.16
5208.03
-537.87
5208.03
5208.03
6030.5
-822.471
6030.5
6030.5
7155.05
-1124.55
7155.06
7155.05
8892.83
-1737.76
8892.84
8892.86
9722.09
10695.1
11646.8
12593
13542.4
14493.9
11597.1
3853.48
12570
13548.7
14529.2
15512.8
16499.3
17489.2
18482.8
19480.3
20487.6
21514.4
22579.1
23679.1
24539.3
8564.88
15974.4
8564.87
8564.87
8564.87
-1241.32
9806.2
-1241.32
-1241.32
-1241.32
226.317
-1467.63
226.329
226.327
1622.06
-1395.73
1622.06
1622.07
1622.06
-7881.61
9503.68
-7881.62
-7881.63
-7881.63
-23861.7
15980
-23133.1
-22228.8
-21329.9
-20429.3
-19528.5
-18627.9
-17726.4
-16822.7
-15915.3
-15002.4
-14082.1
-13152.4
-12210.7
-16845.3
5587.41
-15861.3
-14804.6
-13624.7
-12232.8
-10767.2
-9949.13
-9949.12
-9949.12
-7619.5
-2329.61
-7619.5
-7619.49
-6212.41
-1407.08
-6212.41
-6212.41
-5265.42
-946.989
-5265.42
-5265.42
-4664.27
-601.152
-4664.26
-4664.27
-4664.26
-4400.94
-263.324
-4400.94
-4400.94
-4438.8
37.8567
-31276.8
-14792.5
-11140.4
-8639.05
-17511.7
-1829.14
-12908.2
-1997.07
-13324.3
-1359.5
-10579
-2967.81
-7388.02
-4538.74
-2627.61
-4955.79
1196.77
-597.908
1469.39
7497.26
-37.5728
10824.3
-1202.69
9257.95
-1497.05
5281.63
-1210.07
1806.05
-156.782
-161.456
164.712
1900.31
59.2921
2712.08
-48.0144
2639.95
2724.63
-1049.13
-9393.95
-5444.67
-4243.51
-4966.7
-2307.11
-5907.37
-1056.4
-6391.03
-875.84
-6566.59
-2792.24
-5864.32
-5241.01
-3724.1
-7096
349.92
-4671.93
2438.93
5408.25
1205.15
12058
-1417.88
11881
-2725.52
6589.27
-1590.2
670.725
7.7239
-1759.38
372.887
1535.15
233.397
2851.58
9.11019
2864.24
2470.42
-3931.09
-9584.93
-6322.19
-1852.42
-8344.53
-284.77
-8146.85
-1254.08
-7041.07
-1981.63
-5648.6
-4184.72
-4305.72
-6583.89
-2967.45
-8434.28
-723.382
-6916
1176.77
3508.1
1522.18
11712.6
-409.825
13813
-2281.32
8460.77
-1103.43
-507.17
654.913
-3517.71
814.851
1375.22
432.843
3233.58
275.568
3021.51
2144.82
-5242.5
-5283.62
-6993.77
-101.146
-6824.56
-453.981
-6694.69
-1383.96
-5657.39
-3018.92
-4728.98
-5113.13
-4179.26
-7133.6
-3736.95
-8876.59
-2459.64
-8193.32
-248.012
1296.47
793.71
10670.9
92.1062
14514.6
-1647.17
10200
64.0059
-2218.34
1802.7
-5256.4
1669.97
1507.95
883.327
4020.23
570.642
3334.2
1768.48
-5581.58
-2857.53
-6945.08
1262.35
-6208.68
-1190.39
-5451.61
-2141.02
-4645.3
-3825.24
-4547.81
-5210.63
-4996.57
-6684.85
-5498.14
-8375.02
-5145.31
-8546.15
-2631.98
-1216.86
-804.099
8843.03
-234.515
13945
-546.4
10511.9
1548.27
-4313.01
2957.94
-6666.08
2572.78
1893.11
1747.49
4845.51
1201.95
3879.74
1563.36
-4944.18
-1271.12
-6009.13
2327.3
-5323.02
-1876.5
-4944.66
-2519.39
-4868.08
-3901.82
-5534.1
-4544.61
-6674.27
-5544.68
-7763.57
-7285.72
-8005.39
-8304.34
-5851.15
-3371.1
-3367.58
6359.46
-1559.85
12137.3
226.179
8725.9
1743.29
-5830.11
1699.88
-6622.67
1298.32
2294.68
1155.07
4988.76
1383.58
3651.24
617.334
-5379.82
-241.928
-5179.51
2127
-4523.29
-2532.72
-4667.28
-2375.4
-5372.05
-3197.06
-6627.21
-3289.46
-8153.09
-4018.81
-9660.32
-5778.49
-10620.9
-7343.76
-9475.47
-4516.54
-6817.6
3701.58
-3929.8
9249.47
-960.234
5756.34
-1554.75
-5235.6
-2808.85
-5368.56
-1098.22
584.05
782.03
3108.5
1580.19
2853.08
7784.93
-5184.46
291.845
-4675.01
1617.55
-4667.49
-2540.25
-5242
-1800.89
-6381.16
-2057.91
-7733.84
-1936.77
-9226.14
-2526.51
-10944.5
-4060.17
-12686.1
-5602.13
-12811.2
-4391.48
-10272.2
1162.64
-6642.73
5619.99
-4997.1
4110.71
-7774.38
-2458.31
-9132.83
-4010.12
-7290.82
-1257.96
-6835.52
2653.2
-10312.9
6330.42
13452.1
-4964.3
337.103
-4250.66
903.917
-5005.76
-1785.15
-5879.38
-927.271
-7073.1
-864.194
-8209.94
-799.931
-9512.91
-1223.55
-11412.9
-2160.22
-13973
-3041.98
-15743.3
-2621.18
-14631
50.3348
-11839.7
2828.64
-10916.7
3187.74
-13237.3
-137.758
-15189.2
-2058.17
-15635.8
-811.328
-14973.9
1991.25
-13766.2
5122.75
9189.58
-4621.38
-163.058
-3599.72
-117.742
-5466.84
81.972
-6470.96
76.8422
-7426.26
91.0999
-8278.5
52.3033
-9483.61
-18.4465
-11565.2
-78.6437
-14512.7
-94.494
-17054
-79.9029
-16928.8
-74.8654
-14003.5
-96.5985
-10711.4
-104.402
-10832.7
-16.4717
-13004.9
114.058
-14225.7
409.484
-12710.7
476.214
-7867.78
279.845
-73.9345
-4622.15
-576.483
-3744.5
-995.388
-5467.02
1804.5
-6430.2
1040.02
-7363.39
1024.29
-8220.59
909.501
-9456.57
1217.53
-11576.1
2040.87
-14543.3
2872.7
-17084.9
2461.68
-16951
-208.755
-13979.1
-3068.51
-10505.6
-3577.89
-10325.3
-196.749
-12317.7
2106.46
-13589.1
1680.87
-12290.7
-822.161
-7689.93
-4320.96
-9231.5
-4930.36
-432.972
-4326.62
-1599.13
-5022.49
2500.36
-5832.44
1849.96
-6960.34
2152.19
-8072.87
2022.03
-9402.29
2546.95
-11358.1
3996.73
-13967.2
5481.72
-15772.9
4267.37
-14708.7
-1272.96
-11995.8
-5781.4
-11171.6
-4402.07
-13559
2190.63
-15652.4
4199.86
-16391.1
2419.55
-15683.7
-1529.56
-14082.3
-5922.32
-13507.6
-5193.75
159.09
-4714.47
-2078.41
-4706.52
2492.41
-5234.64
2378.07
-6302.78
3220.33
-7605.09
3324.34
-9087.25
4029.1
-10832.9
5742.37
-12620.4
7269.18
-12804
4450.97
-10326.2
-3750.67
-6818.47
-9289.18
-5523.21
-5697.33
-8707.91
5375.34
-10508.1
6000.03
-8845.86
757.329
-7786.68
-2588.75
-10385.4
-3323.6
-7918.61
-5411.84
1201.41
-5204.44
-2285.81
-4563.32
1851.29
-4687.39
2502.14
-5345.24
3878.17
-6551.53
4530.63
-8048.91
5526.47
-9561.72
7255.17
-10568.6
8276.08
-9516.15
3398.48
-6914.3
-6352.52
-4063.19
-12140.3
-1539.45
-8221.07
-2754.61
6590.49
-4292.15
7537.57
-1849.37
-1685.46
471.718
-4909.84
2169.18
-5021.07
-1895.95
-4969.97
2796.98
-6028.46
-1227.32
-5353.09
1175.92
-4972.68
2121.72
-4877.79
3783.29
-5514.58
5167.42
-6630.13
6642.01
-7718.59
8343.63
-7998.53
8556.02
-5923.08
1323.04
-3463.74
-8811.87
-1654.75
-13949.3
98.7747
-9974.6
1110.24
5579.02
698.101
7949.72
470.211
-1457.57
996.4
-5436.03
948.949
-4973.62
-2684.76
-5606.56
5235.65
-6962.65
128.766
-6232.35
445.615
-5478.04
1367.41
-4669.63
2974.88
-4563.28
5061.07
-5002.24
7080.96
-5508.33
8849.72
-5189.47
8237.15
-2716.25
-1150.2
-868.595
-10659.5
-275.102
-14542.8
-341.666
-9908.04
1533.96
3703.39
2824.18
6659.49
2484.52
-1117.91
1801.17
-4752.68
1125.88
-4298.32
-2683.43
-5247.86
9529.1
-6999.81
1880.72
-6838.12
283.933
-6718.44
1247.72
-5692.18
1948.62
-4770.17
4139.06
-4225.22
6536
-3795.05
8419.55
-2553.76
6995.86
-320.824
-3383.13
755.281
-11735.6
63.1939
-13850.7
-1519.47
-8325.37
346.063
1837.85
2157.68
4847.87
2051.05
-1011.28
1182.18
-3883.81
648.973
-3765.12
-2856.93
-3956.06
9345.6
-6336.22
4260.87
-8356.79
2304.51
-8171.05
1061.98
-7080.01
857.578
-5703.78
2762.83
-4379.33
5211.55
-3058.14
7098.36
-816.279
4754
1128.45
-5327.87
1492.09
-12099.3
-457.596
-11901
-2282.8
-6500.17
-890.26
445.316
983.782
2973.83
1232.17
-1259.66
695.142
-3346.78
337.952
-3407.93
-3056.84
-1024.47
14718.4
-5429.92
8666.31
-4961.7
1836.29
-5909.81
2010.09
-6410.64
1358.41
-6612.52
2964.71
-5940.03
4539.05
-3817.08
4975.41
284.649
652.268
2424.44
-7467.66
1170.6
-10845.4
-1508.03
-9222.35
-2873.62
-5134.58
-1525.22
-903.082
387.474
1061.14
825.304
-1697.49
446.002
-2967.48
64.2831
-3026.21
-3205.09
-31335.6
-11177.6
-17554.8
-12952.2
-13373.4
-10634.4
-7448.54
-2678.71
1175.42
1474.93
-57.6869
-1276.37
-1729.9
-1321.38
-175.449
322.693
138.283
-22.8444
58.8558
-888.053
122.959
-1037.11
170.399
-999.035
213.183
-989.017
247.782
-983.935
272.641
-976.331
281.73
-965.772
270.898
-962.13
255.538
-963.358
238.178
-963.2
220.291
-965.798
201.832
-967.986
183.647
-971.813
165.158
-975.056
147.435
-979.769
129.641
-989.603
114.993
-1012.11
106.37
-1056.03
102.322
-1096
-757.825
-21.2474
-866.8
-25.5377
-1032.81
-33.9182
-990.649
-34.27
-988.658
-33.7666
-984.434
-30.5364
-979.554
-18.5273
-977.776
-6.87493
-973.776
2.3276
-972.557
10.9091
-971.776
17.9715
-972.856
23.6669
-973.677
28.0227
-976.165
30.7365
-977.765
32.7552
-981.784
32.3672
-989.211
31.1013
-1010.84
32.4465
-1057.38
43.108
-1106.65
-714.717
-36.2745
-830.52
-19.8096
-1049.27
-17.0011
-993.453
-15.0254
-990.628
-11.9217
-987.533
-7.22837
-984.242
-3.45967
-981.54
2.71654
-979.947
9.47499
-979.311
16.6739
-978.97
23.4749
-979.653
30.0431
-980.241
35.9716
-982.09
41.4357
-983.226
45.8217
-986.167
47.3814
-990.769
43.2947
-1006.75
39.2569
-1053.34
38.8387
-1106.23
-675.878
-28.5732
-801.946
-23.7633
-1054.08
-22.1702
-995.046
-20.3571
-992.441
-16.6056
-991.284
-11.6007
-989.246
-4.75027
-988.39
2.53178
-987.228
10.1901
-986.969
17.7926
-986.572
25.0484
-986.909
31.9097
-987.101
38.0416
-988.222
43.8351
-989.019
48.5987
-990.93
51.2291
-993.399
47.8975
-1003.42
43.142
-1048.58
35.8007
-1098.89
-640.077
-20.984
-780.958
-17.2016
-1057.86
-12.6831
-999.561
-9.81318
-995.307
-5.47431
-995.619
-0.383666
-994.333
5.52851
-994.299
11.8797
-993.576
18.4561
-993.542
25.0282
-993.14
31.309
-993.187
37.3444
-993.134
42.6975
-993.572
47.7205
-994.039
51.7467
-994.954
54.0297
-995.68
51.7406
-1001.13
48.3963
-1045.23
35.9473
-1086.44
-604.13
-11.4324
-769.527
-9.71076
-1059.58
-5.51723
-1003.75
-2.94766
-997.877
0.44982
-999.017
4.31507
-998.199
8.64495
-998.629
13.2002
-998.132
17.9165
-998.259
22.7141
-997.938
27.4375
-997.911
32.0905
-997.787
36.3641
-997.846
40.3979
-998.074
43.7054
-998.262
45.7785
-997.753
46.1203
-1001.47
47.3732
-1046.49
34.3832
-1073.45
-569.747
-3.33956
-766.187
-2.68663
-1060.24
-0.434116
-1006.01
0.556191
-998.867
1.83948
-1000.3
3.50769
-999.867
5.35355
-1000.48
7.49179
-1000.27
9.80537
-1000.57
12.3447
-1000.48
15.0254
-1000.59
17.8284
-1000.59
20.6246
-1000.64
23.3688
-1000.82
25.7755
-1000.67
27.5452
-999.523
30.199
-1004.13
35.4153
-1051.7
25.1625
-1063.2
-544.584
1.76116
-767.952
1.25277
-1059.73
0.863973
-1005.62
-0.222686
-997.784
-1.2731
-999.253
-2.00524
-999.138
-2.65053
-999.833
-3.01807
-999.906
-3.20525
-1000.39
-3.12707
-1000.56
-2.79662
-1000.92
-2.2419
-1001.15
-1.44229
-1001.44
-0.513773
-1001.75
0.462131
-1001.65
1.43345
-1000.5
4.18612
-1006.88
9.04004
-1056.56
3.78131
-1057.94
-540.803
4.88885
-772.84
2.50021
-1057.34
-0.0151357
-1003.11
-2.85131
-994.948
-5.71994
-996.384
-8.39762
-996.461
-11.0369
-997.193
-13.4949
-997.447
-15.8282
-998.054
-17.9726
-998.415
-19.9159
-998.98
-21.6725
-999.391
-23.1732
-999.943
-24.5101
-1000.41
-25.5693
-1000.59
-26.2423
-999.823
-26.7316
-1006.39
-28.5076
-1054.78
-26.8948
-1059.55
-567.698
8.13802
-780.981
3.79035
-1053
0.112481
-999.43
-3.59884
-991.239
-7.37409
-992.611
-11.0928
-992.744
-14.8396
-993.448
-18.5416
-993.748
-22.2307
-994.366
-25.8719
-994.775
-29.463
-995.391
-33.0021
-995.854
-36.4447
-996.501
-39.8372
-997.02
-42.9368
-997.488
-45.5922
-997.168
-50.6181
-1001.37
-62.9221
-1042.48
-56.1404
-1066.34
-623.838
12.2229
-793.205
6.73226
-1047.51
2.76354
-995.463
-0.855548
-987.621
-4.58647
-988.881
-8.33219
-989
-12.1713
-989.61
-16.0556
-989.865
-20.0267
-990.396
-24.0569
-990.747
-28.1705
-991.278
-32.3539
-991.672
-36.6035
-992.253
-40.9432
-992.682
-45.1567
-993.276
-49.0578
-993.268
-55.8695
-994.555
-75.3673
-1022.98
-72.1679
-1069.54
-696.006
16.4646
-809.672
10.4223
-1041.47
6.56582
-991.609
3.61542
-984.674
0.5144
-985.783
-2.60899
-985.879
-5.84177
-986.38
-9.12977
-986.58
-12.5292
-987
-16.0053
-987.273
-19.6003
-987.685
-23.2922
-987.982
-27.1046
-988.442
-31.0493
-988.739
-35.0431
-989.284
-38.8986
-989.414
-44.0374
-989.418
-62.2403
-1004.78
-69.8596
-1061.92
-765.866
19.556
-829.23
12.9936
-1034.91
9.41088
-988.028
7.17009
-982.435
4.77668
-983.391
2.37077
-983.475
-0.118213
-983.893
-2.63299
-984.067
-5.22697
-984.407
-7.86186
-984.64
-10.5779
-984.971
-13.3487
-985.213
-16.2052
-985.587
-19.1404
-985.805
-22.1624
-986.263
-25.1735
-986.404
-28.1447
-986.447
-39.4409
-993.485
-54.5635
-1046.8
-820.429
20.8874
-850.12
13.7651
-1027.79
10.5977
-984.863
8.85495
-980.694
6.97527
-981.514
5.08893
-981.591
3.14845
-981.955
1.20512
-982.126
-0.783099
-982.421
-2.78089
-982.644
-4.81843
-982.935
-6.86908
-983.164
-8.95917
-983.499
-11.0676
-983.699
-13.2175
-984.115
-15.3745
-984.249
-17.3276
-984.495
-22.704
-988.109
-37.4299
-1032.07
-857.859
20.9178
-871.039
13.3382
-1020.21
10.6476
-982.174
9.20034
-979.249
7.63052
-979.945
6.06009
-980.023
4.44893
-980.345
2.84307
-980.521
1.20781
-980.788
-0.426532
-981.011
-2.08283
-981.281
-3.73651
-981.512
-5.40942
-981.828
-7.07707
-982.032
-8.75515
-982.438
-10.4222
-982.583
-11.9989
-982.92
-14.9491
-985.16
-26.069
-1020.95
-883.928
20.4857
-891.527
12.5149
-1012.24
10.2507
-979.911
8.97209
-977.972
7.58094
-978.556
6.19596
-978.639
4.77067
-978.922
3.35151
-979.104
1.90589
-979.344
0.459573
-979.567
-1.00575
-979.817
-2.46765
-980.051
-3.94894
-980.348
-5.41938
-980.563
-6.90042
-980.959
-8.37755
-981.107
-9.7642
-981.534
-12.0466
-982.879
-21.0158
-1011.98
-904.944
20.1628
-911.69
11.7324
-1003.81
9.84077
-978.02
8.6914
-976.823
7.42917
-977.294
6.1791
-977.39
4.88151
-977.625
3.58359
-977.806
2.25741
-978.018
0.920684
-978.23
-0.438505
-978.458
-1.80322
-978.687
-3.19648
-978.955
-4.58043
-979.18
-5.99697
-979.542
-7.40851
-979.696
-8.7494
-980.194
-10.7534
-980.875
-19.3419
-1003.4
-924.286
20.1835
-931.874
11.1431
-994.771
9.62583
-976.503
8.64103
-975.839
7.51777
-976.172
6.40402
-976.277
5.2325
-976.454
4.04396
-976.619
2.82228
-976.797
1.57682
-976.986
0.303791
-977.186
-0.987093
-977.397
-2.31279
-977.63
-3.63819
-977.855
-5.02294
-978.158
-6.38549
-978.334
-7.76907
-978.81
-9.60686
-979.038
-18.4577
-994.546
-942.743
20.8303
-952.705
11.0805
-985.021
9.97475
-975.398
9.26217
-975.126
8.36782
-975.278
7.44234
-975.352
6.43367
-975.446
5.3616
-975.547
4.22164
-975.658
3.0165
-975.781
1.74812
-975.918
0.42234
-976.072
-0.963168
-976.245
-2.382
-976.436
-3.87247
-976.668
-5.32719
-976.879
-6.8785
-977.259
-8.53284
-977.383
-17.5678
-985.511
-960.311
22.2947
12.2732
11.8747
11.7479
11.4697
11.1179
10.6719
10.1247
9.46674
8.68558
7.76737
6.69552
5.45038
4.01374
2.34534
0.465964
-1.79362
-4.1773
-14.6888
-672.208
1647.22
-1085.59
1388.4
-1507.74
1397.16
-1842.39
1309.66
-2135.98
1268.59
-2376.66
1215.7
-2572.96
1171.3
-2725.09
1127.14
-2836.17
1086.08
-2907.97
1046.81
-2941.69
1008.71
-2936.04
969.365
-2887.07
926.02
-2789.09
877.021
-2636.46
822.369
-2422.89
761.427
-2129.44
681.541
-1686.05
531.603
-964.557
253.5
10.4429
-172.59
1819.81
-393.414
1609.23
-627.477
1631.22
-818.777
1500.97
-1000.56
1450.37
-1149.37
1364.52
-1275.25
1297.18
-1373.62
1225.51
-1446.13
1158.59
-1488.7
1089.39
-1494.98
1014.98
-1457.46
931.846
-1374.64
843.188
-1254.62
757.008
-1110.77
678.512
-950.097
600.747
-766.44
497.878
-548.724
313.876
-247.138
-48.1081
-236.696
-138.489
1958.3
-315.872
1786.62
-453.419
1768.77
-562.787
1610.33
-663.198
1550.78
-741.812
1443.13
-812.195
1367.56
-870.87
1284.18
-919.05
1206.77
-944.529
1114.87
-924.095
994.545
-830.767
838.515
-662.675
675.092
-452.93
547.259
-228.01
453.585
17.964
354.766
278.195
237.64
469.157
122.907
392.465
28.5762
155.769
-85.1941
2043.48
-189.672
1891.07
-280.747
1859.83
-371.386
1700.95
-465.186
1644.57
-553.999
1531.92
-648.872
1462.42
-744.175
1379.46
-844.143
1306.73
-940.731
1211.43
-1019.14
1072.95
-1051.49
870.846
-1019.16
642.772
-930.931
459.014
-798.492
321.146
-622.028
178.298
-415.144
30.7568
-185.737
-106.497
-36.3457
-120.808
119.424
-23.7742
2067.24
-115.837
1983.11
-176.327
1920.3
-233.767
1758.36
-291.601
1702.39
-342.371
1582.66
-392.912
1512.95
-436.974
1423.49
-479.738
1349.49
-525.398
1257.06
-586.958
1134.51
-673.204
957.068
-771.373
740.944
-846.789
534.416
-880.956
355.319
-889.373
186.716
-886.076
27.4655
-803.214
-189.351
-559.685
-364.328
-440.261
113.928
1953.3
50.5863
2046.44
54.7429
1916.14
72.9386
1740.15
100.704
1674.62
134.848
1548.5
180.023
1467.78
235.809
1367.69
303.124
1282.18
372.076
1188.1
422.727
1083.86
424.004
955.78
362.398
802.552
263.017
633.791
159.452
458.89
73.0795
273.094
43.6049
56.9527
-10.8462
-134.889
-78.7605
-296.407
-519.021
194.399
1758.9
177.7
2063.13
213.209
1880.63
268.816
1684.53
336.833
1606.6
404.598
1480.72
481.812
1390.56
564.563
1284.93
656.544
1190.19
751.849
1092.78
841.134
994.575
905.839
891.071
928.139
780.252
901.483
660.444
828.799
531.574
710.643
391.248
528.089
239.507
328.06
65.14
166.572
-134.917
-352.45
182.332
1576.57
188.568
2056.9
212.964
1856.24
256.201
1641.3
307.465
1555.34
355.312
1432.88
404.439
1341.44
453.542
1235.83
503.203
1140.54
551.762
1044.23
595.818
950.525
629.421
857.472
644.886
764.791
635.109
670.225
595.157
571.532
523.352
463.057
420.655
342.209
289.605
196.2
137.333
17.3658
-215.116
143.654
1432.92
152.863
2047.69
155.125
1853.97
173.957
1622.47
198.529
1530.77
219.667
1411.74
238.235
1322.87
255.497
1218.57
269.993
1126.04
282.577
1031.64
291.745
941.355
296.815
852.403
295.645
765.96
285.776
680.093
263.424
593.883
226.611
499.869
173.815
395.005
109.488
260.525
40.1941
86.6582
-174.922
116.423
1316.49
128.058
2036.05
114.36
1867.67
116.208
1620.62
127.281
1519.7
135.508
1403.51
141.439
1316.94
145.698
1214.31
147.584
1124.16
148.017
1031.21
146.306
943.069
142.91
855.8
137.496
771.377
129.812
687.779
118.074
605.624
100.596
517.349
74.059
421.545
39.898
294.691
12.5894
113.973
-162.333
96.1346
1220.36
117.808
2014.38
103.822
1881.66
100.748
1623.69
113.636
1506.81
125.515
1391.63
137.277
1305.18
146.453
1205.13
154.467
1116.14
160.566
1025.11
164.607
939.029
165.988
854.419
164.342
773.023
159.187
692.935
149.826
614.986
134.461
532.714
110.272
445.735
73.7459
331.22
27.0177
160.705
-135.315
67.2771
1153.09
103.14
1978.52
104.257
1880.54
104.89
1623.06
126.165
1485.54
150.483
1367.32
177.818
1277.85
202.172
1180.78
225.588
1092.73
245.549
1005.16
261.617
922.965
271.772
844.268
274.8
769.999
269.275
698.463
254.547
629.718
228.979
558.286
191.228
483.489
137.12
385.332
55.7209
242.112
-79.5941
30.5171
1122.57
83.7469
1925.29
109.427
1854.86
119.28
1613.21
148.045
1456.78
183.838
1331.53
225.569
1236.12
264.606
1141.75
301.237
1056.1
331.868
974.528
355.205
899.629
368.895
830.581
371.5
767.395
361.71
708.256
339.002
652.427
302.414
594.876
251.352
534.552
183.804
452.881
85.8443
340.073
6.25025
-0.641795
1123.22
73.7029
1850.95
128.12
1800.45
154.561
1586.78
190.697
1420.65
233.385
1288.85
281.951
1187.56
327.434
1096.27
367.788
1015.75
399.258
943.066
420.171
878.72
428.979
821.78
425.015
771.361
407.94
725.338
377.794
682.575
334.235
638.438
276.873
591.915
204.674
525.08
107.424
437.325
113.675
-14.0012
1137.22
75.3048
1761.65
155.347
1720.41
205.397
1536.74
252.374
1373.67
299.195
1242.04
346.901
1139.85
389.201
1053.98
423.349
981.609
446.524
919.899
457.62
867.626
456.307
823.099
442.909
784.76
417.888
750.364
381.71
718.753
334.213
685.939
275.12
651.007
202.758
597.442
111.196
528.885
224.871
-3.48642
1140.72
76.3695
1681.81
170.638
1626.15
244.494
1462.89
304.849
1313.33
355.597
1191.3
399.112
1096.35
433.461
1019.64
457.211
957.864
469.285
907.833
469.685
867.231
459.052
833.74
438.271
805.544
408.041
780.6
368.882
757.915
320.529
734.295
262.786
708.752
193.065
667.164
107.194
614.757
332.065
25.7579
1114.97
71.2777
1636.29
160.67
1536.76
245.042
1378.53
312.396
1245.98
364.421
1139.28
403.668
1057.1
430.744
992.575
445.729
942.883
449.248
904.323
442.465
874.016
426.654
849.558
402.871
829.329
371.766
811.711
333.755
795.927
288.481
779.573
235.846
761.388
172.638
730.372
95.1821
692.213
427.247
55.5637
1059.41
66.9628
1624.9
144.049
1459.68
242.811
1279.77
315.797
1172.99
367.782
1087.3
399.922
1024.96
419.105
973.394
426.578
935.411
424.597
906.305
414.398
884.215
397.192
866.766
373.643
852.878
344.109
841.246
308.728
831.308
267.051
821.249
218.865
809.574
160.74
788.498
88.6903
764.263
515.938
101.173
958.235
81.9868
1644.09
63.4567
1478.21
104.513
1238.71
163.556
1113.95
219.972
1030.89
269.404
975.533
304.454
938.347
323.549
916.317
330.316
899.54
327.367
887.165
316.735
877.4
299.523
870.091
276.388
864.382
247.996
859.702
214.306
854.941
175.938
847.944
129.042
835.397
70.0119
823.296
585.95
140.208
318.649
405.002
463.816
521.169
568.077
590.743
587.485
574.039
553.239
527.372
497.351
463.753
426.587
385.711
339.831
287.144
223.615
142.642
)
;

boundaryField
{
    outletWall
    {
        type            calculated;
        value           nonuniform List<scalar> 
60
(
-4438.8
-2734.79
-2532.65
-2606.66
-2221.81
-891.829
-2093.03
-4987.28
-8092.83
-9317.3
-7769.88
-3226.48
195.377
1347.71
222.55
1775.59
-2606.42
8200.4
-11497.3
39714.9
6352.28
-4348.33
4139.57
954.401
3167.9
3374.4
4369.52
4601.69
4786.85
5035.57
5121.54
4919.04
4650.68
4350.63
3357.77
3155.49
941.193
4122.07
-4349.46
6354.39
-4536.26
-3149.31
-2865.08
-2783.07
-2195.63
-84.7946
-1311.6
-4681.05
-8003.67
-9312.82
-7767.16
-3201.87
205.584
1353.16
225.771
1779.57
-2592.53
8213.5
-11491.7
39701.8
)
;
    }
    fineWalls
    {
        type            calculated;
        value           uniform 0;
    }
    fineFrontAndBack
    {
        type            calculated;
        value           nonuniform List<scalar> 
960
(
1.97307e-17
1.04012e-15
-4.07471e-16
-2.03733e-15
2.03806e-14
-1.37851e-14
6.74459e-14
-1.37105e-13
3.10053e-13
3.40145e-13
4.57479e-13
-5.86994e-13
-6.3812e-13
-6.98779e-13
-7.40903e-12
-2.03514e-12
-2.07026e-12
-1.06904e-11
-1.65246e-12
-1.95279e-12
-9.84425e-14
-5.01271e-13
-4.78807e-13
-5.49011e-13
-5.31768e-13
-6.9498e-13
-8.10971e-12
-7.50633e-13
-8.37399e-13
-9.76728e-13
-1.13845e-12
-1.35364e-12
-1.5545e-12
-1.71154e-12
-1.84351e-12
-1.91172e-12
-1.88767e-12
-1.89237e-12
-1.83081e-12
-1.84391e-12
-4.64212e-11
-7.03455e-12
-7.0074e-12
-7.55364e-12
-3.97539e-11
-9.05718e-12
-1.02735e-11
-1.06441e-11
-7.2827e-11
-1.33431e-11
-1.63954e-11
-2.63973e-11
1.036e-12
2.84342e-12
5.1423e-12
3.18452e-11
5.38644e-12
4.76183e-12
4.02095e-12
2.43606e-11
9.9025e-13
6.51426e-13
4.69218e-13
2.59788e-13
1.2206e-13
4.90211e-14
3.96369e-14
6.57656e-14
1.17254e-13
1.48186e-13
1.59394e-13
1.72933e-13
1.88405e-13
-3.91858e-12
1.93511e-13
9.71537e-14
1.10284e-13
4.28475e-14
-3.41046e-14
-2.99551e-13
-1.00972e-12
-1.27046e-12
-6.31279e-12
-1.47026e-12
-1.49447e-12
-7.58383e-12
-1.21444e-12
-1.25335e-12
-5.75653e-12
-8.64484e-13
-9.31856e-13
-2.69035e-12
1.04822e-13
1.25734e-13
1.26189e-13
8.91456e-13
1.76869e-13
1.89065e-13
4.70774e-13
-1.69973e-14
-9.41817e-10
2.23826e-10
5.06534e-11
2.13673e-11
9.85014e-12
-4.89811e-12
-5.55872e-12
-2.34724e-12
1.26058e-12
-1.25897e-12
-8.29388e-14
1.21463e-13
-1.51626e-14
-8.94399e-16
3.44819e-15
-2.08458e-15
-9.0979e-15
-3.13908e-15
1.69785e-14
-1.11174e-09
6.65282e-11
-2.13587e-11
1.17717e-11
-3.14193e-12
-2.31053e-12
2.87384e-12
1.17245e-11
1.72621e-11
3.70426e-12
-8.04259e-13
-2.07814e-13
9.76009e-14
-7.0187e-14
-2.94176e-13
5.13853e-14
5.25308e-14
-1.50543e-15
-1.95344e-14
-1.34986e-09
2.10249e-10
-2.12821e-11
1.01813e-11
-3.10403e-12
4.88986e-12
1.46345e-11
2.53066e-11
3.1284e-11
1.90168e-11
9.82124e-13
-1.09348e-12
2.65326e-14
-1.76214e-13
-8.47365e-13
-6.75401e-13
-1.49998e-13
8.10616e-14
1.50466e-13
-1.00475e-09
2.07254e-10
-3.60719e-11
1.48555e-11
4.53449e-12
1.75183e-11
2.75649e-11
3.59957e-11
3.83216e-11
2.5602e-11
5.77435e-12
-1.44276e-12
-4.9511e-13
-6.63799e-14
6.2546e-13
1.81014e-12
-2.30678e-13
-4.19117e-13
9.71029e-13
-1.24458e-09
2.62527e-10
-4.36359e-11
2.54684e-11
1.61368e-11
2.95557e-11
3.60582e-11
4.19129e-11
4.20282e-11
2.70875e-11
8.74223e-12
-9.80748e-13
-1.23489e-12
-5.03444e-13
7.89053e-12
1.08769e-11
3.60984e-12
6.72313e-14
4.19743e-13
-1.19736e-09
2.6592e-10
-3.99141e-11
4.01254e-11
2.55709e-11
3.50873e-11
3.90198e-11
4.5717e-11
4.70449e-11
3.0296e-11
7.2585e-12
-3.71858e-13
-2.00652e-12
2.36317e-12
2.63921e-11
2.85416e-11
1.2823e-11
2.0436e-12
6.10585e-12
-1.40127e-09
3.41548e-10
-5.31288e-11
4.96742e-11
2.57871e-11
3.38728e-11
3.9514e-11
5.05328e-11
5.59899e-11
3.8671e-11
6.37307e-12
-1.92209e-12
-1.64201e-12
2.24797e-11
4.93332e-11
2.90831e-11
1.64203e-11
4.71551e-12
-2.4705e-11
-1.79622e-09
4.43035e-10
-7.82613e-11
4.67977e-11
1.93661e-11
2.97687e-11
3.90784e-11
5.45437e-11
6.58294e-11
5.33833e-11
1.05171e-11
-1.01425e-11
1.82993e-12
5.25391e-11
5.97171e-11
2.67986e-11
1.19116e-11
1.24515e-11
1.9204e-11
-2.31847e-09
5.69589e-10
-1.17133e-10
4.02809e-11
1.09064e-11
2.23956e-11
3.19979e-11
4.76627e-11
6.46445e-11
7.12451e-11
5.07871e-11
2.82187e-11
4.39651e-11
8.10594e-11
8.13271e-11
6.28708e-11
4.86544e-11
4.96666e-11
5.55607e-11
-3.28472e-09
8.31783e-10
-1.27113e-10
3.39984e-11
-1.60778e-12
2.30443e-12
3.71704e-12
1.09147e-11
2.6275e-11
5.0487e-11
7.06033e-11
7.00743e-11
6.65546e-11
7.68386e-11
8.26838e-11
9.01813e-11
8.51765e-11
7.62939e-11
5.14426e-11
-1.11467e-09
3.2911e-10
-5.15751e-11
1.20963e-11
-2.54243e-11
-4.83454e-11
-7.28079e-11
-9.13153e-11
-1.09397e-10
-1.27716e-10
-1.3438e-10
-1.18614e-10
-9.94581e-11
-7.90707e-11
-5.32091e-11
-4.97413e-11
-6.17658e-11
-7.24249e-11
-8.57556e-11
-3.2592e-10
9.74054e-11
-9.42997e-12
8.28845e-12
-2.22617e-11
-5.4761e-11
-8.92822e-11
-1.16564e-10
-1.30563e-10
-1.16221e-10
-6.34764e-11
-2.79994e-11
-5.43482e-11
-1.04163e-10
-9.99216e-11
-8.16997e-11
-7.24968e-11
-7.11416e-11
-7.31726e-11
-1.15701e-10
2.72978e-11
4.19693e-12
5.79949e-12
-1.16936e-11
-4.20943e-11
-7.80036e-11
-1.07899e-10
-1.15137e-10
-7.76369e-11
-5.63458e-12
1.79893e-11
-5.06072e-12
-7.82467e-11
-9.17267e-11
-5.55572e-11
-3.14294e-11
-3.40375e-11
-4.97815e-11
5.55995e-12
-6.05965e-12
7.04965e-12
7.8919e-13
-4.06439e-12
-2.59381e-11
-5.66011e-11
-8.56461e-11
-9.14533e-11
-5.46425e-11
-4.36477e-12
4.07748e-12
1.28175e-12
-4.12721e-11
-8.02935e-11
-5.17375e-11
-2.54463e-11
-5.52078e-12
1.88247e-11
6.97936e-11
-2.19543e-11
8.09133e-12
-3.73893e-12
-1.57981e-12
-1.44381e-11
-3.60224e-11
-6.14384e-11
-6.97332e-11
-4.21408e-11
-7.65842e-12
7.6648e-13
2.55833e-12
-8.18286e-12
-4.97788e-11
-5.6398e-11
-2.56962e-11
-5.58513e-12
-5.11468e-13
1.83546e-10
-4.2895e-11
1.30606e-11
-6.2615e-12
-1.26612e-12
-8.58405e-12
-2.1265e-11
-4.07511e-11
-5.18675e-11
-3.46438e-11
-9.33993e-12
9.43209e-13
1.42742e-12
4.35649e-13
-1.81508e-11
-2.71748e-11
-1.02322e-11
-9.43301e-13
1.82895e-12
1.88382e-10
-4.17633e-11
1.73566e-11
-6.1498e-12
-8.1196e-13
-5.92122e-12
-1.30182e-11
-2.60279e-11
-3.74007e-11
-2.7954e-11
-5.93088e-12
1.31246e-12
5.31299e-13
1.62851e-13
-3.51552e-12
-8.2222e-12
-1.13407e-12
6.61205e-13
-4.64775e-14
4.18409e-10
-6.92369e-11
1.88596e-11
-4.61473e-12
6.48661e-13
-3.39462e-12
-8.23098e-12
-1.67838e-11
-2.58581e-11
-1.79678e-11
-1.2793e-12
9.57669e-13
-2.59046e-14
2.62261e-13
4.78804e-13
-3.71446e-13
2.48895e-13
1.08057e-15
-6.50427e-14
4.03839e-10
-2.96551e-11
2.69547e-11
-1.77719e-12
1.31586e-12
-1.35852e-12
-4.84029e-12
-1.02926e-11
-1.45596e-11
-4.01826e-12
5.12814e-13
1.97089e-13
-9.70914e-14
1.90481e-13
6.96406e-13
3.68931e-13
-4.87793e-14
-4.81106e-14
9.77594e-15
6.46096e-10
-1.17968e-10
3.06142e-11
-3.30356e-12
5.11218e-12
4.49471e-12
3.06935e-12
-8.30322e-13
-2.39074e-12
8.36794e-13
1.20863e-13
-9.6709e-14
1.29364e-14
9.73516e-15
8.43243e-14
-4.13077e-14
1.20184e-14
1.02018e-14
-1.7381e-15
-1.97307e-17
-1.04012e-15
4.07471e-16
2.03733e-15
-2.03806e-14
1.37851e-14
-6.74459e-14
1.37105e-13
-3.10053e-13
-3.40145e-13
-4.57479e-13
5.86994e-13
6.3812e-13
6.98779e-13
7.40903e-12
2.03514e-12
2.07026e-12
1.06904e-11
1.65246e-12
1.95279e-12
9.84425e-14
5.01271e-13
4.78807e-13
5.49011e-13
5.31768e-13
6.9498e-13
8.10971e-12
7.50633e-13
8.37399e-13
9.76728e-13
1.13845e-12
1.35364e-12
1.5545e-12
1.71154e-12
1.84351e-12
1.91172e-12
1.88767e-12
1.89237e-12
1.83081e-12
1.84391e-12
4.64212e-11
7.03455e-12
7.0074e-12
7.55364e-12
3.97539e-11
9.05718e-12
1.02735e-11
1.06441e-11
7.2827e-11
1.33431e-11
1.63954e-11
2.63973e-11
-1.036e-12
-2.84342e-12
-5.1423e-12
-3.18452e-11
-5.38644e-12
-4.76183e-12
-4.02095e-12
-2.43606e-11
-9.9025e-13
-6.51426e-13
-4.69218e-13
-2.59788e-13
-1.2206e-13
-4.90211e-14
-3.96369e-14
-6.57656e-14
-1.17254e-13
-1.48186e-13
-1.59394e-13
-1.72933e-13
-1.88405e-13
3.91858e-12
-1.93511e-13
-9.71537e-14
-1.10284e-13
-4.28475e-14
3.41046e-14
2.99551e-13
1.00972e-12
1.27046e-12
6.31279e-12
1.47026e-12
1.49447e-12
7.58383e-12
1.21444e-12
1.25335e-12
5.75653e-12
8.64484e-13
9.31856e-13
2.69035e-12
-1.04822e-13
-1.25734e-13
-1.26189e-13
-8.91456e-13
-1.76869e-13
-1.89065e-13
-4.70774e-13
1.69973e-14
9.41817e-10
-2.23826e-10
-5.06534e-11
-2.13673e-11
-9.85014e-12
4.89811e-12
5.55872e-12
2.34724e-12
-1.26058e-12
1.25897e-12
8.29388e-14
-1.21463e-13
1.51626e-14
8.94399e-16
-3.44819e-15
2.08458e-15
9.0979e-15
3.13908e-15
-1.69785e-14
1.11174e-09
-6.65282e-11
2.13587e-11
-1.17717e-11
3.14193e-12
2.31053e-12
-2.87384e-12
-1.17245e-11
-1.72621e-11
-3.70426e-12
8.04259e-13
2.07814e-13
-9.76009e-14
7.0187e-14
2.94176e-13
-5.13853e-14
-5.25308e-14
1.50543e-15
1.95344e-14
1.34986e-09
-2.10249e-10
2.12821e-11
-1.01813e-11
3.10403e-12
-4.88986e-12
-1.46345e-11
-2.53066e-11
-3.1284e-11
-1.90168e-11
-9.82124e-13
1.09348e-12
-2.65326e-14
1.76214e-13
8.47365e-13
6.75401e-13
1.49998e-13
-8.10616e-14
-1.50466e-13
1.00475e-09
-2.07254e-10
3.60719e-11
-1.48555e-11
-4.53449e-12
-1.75183e-11
-2.75649e-11
-3.59957e-11
-3.83216e-11
-2.5602e-11
-5.77435e-12
1.44276e-12
4.9511e-13
6.63799e-14
-6.2546e-13
-1.81014e-12
2.30678e-13
4.19117e-13
-9.71029e-13
1.24458e-09
-2.62527e-10
4.36359e-11
-2.54684e-11
-1.61368e-11
-2.95557e-11
-3.60582e-11
-4.19129e-11
-4.20282e-11
-2.70875e-11
-8.74223e-12
9.80748e-13
1.23489e-12
5.03444e-13
-7.89053e-12
-1.08769e-11
-3.60984e-12
-6.72313e-14
-4.19743e-13
1.19736e-09
-2.6592e-10
3.99141e-11
-4.01254e-11
-2.55709e-11