/*--------------------------------*- C++ -*----------------------------------*\
| =========                 |                                                 |
| \\      /  F ield         | OpenFOAM: The Open Source CFD Toolbox           |
|  \\    /   O peration     | Version:  4.1                                   |
|   \\  /    A nd           | Web:      www.OpenFOAM.org                      |
|    \\/     M anipulation  |                                                 |
\*---------------------------------------------------------------------------*/
FoamFile
{
    version     2.0;
    format      ascii;
    class       volVectorField;
    location    "4";
    object      U;
}
// * * * * * * * * * * * * * * * * * * * * * * * * * * * * * * * * * * * * * //

dimensions      [0 1 -1 0 0 0 0];

internalField   nonuniform List<vector> 
1280
(
(1.42589e-20 2.54351 -0.0505384)
(1.76778e-19 1.58007 -0.283401)
(-2.94469e-19 1.26114 -0.328589)
(-1.47232e-18 1.57256 -0.329254)
(3.46388e-18 1.76881 -0.499685)
(-9.9621e-18 1.3971 -0.422761)
(4.87414e-17 1.61908 -0.427293)
(-1.13555e-16 1.57531 -0.380554)
(1.21869e-16 1.8979 -0.646335)
(2.63106e-16 1.65297 -0.528794)
(3.30608e-16 1.78063 -0.462883)
(-2.79192e-16 2.1568 -0.792642)
(-4.76105e-16 1.89176 -0.654331)
(-4.97522e-16 2.04842 -0.588288)
(-1.33507e-15 2.52297 -0.991458)
(-1.47074e-15 2.18962 -0.825606)
(-1.49613e-15 2.48926 -0.677604)
(-1.81693e-15 2.39821 -1.50755)
(-1.18907e-15 3.25599 -0.238322)
(-1.41123e-15 1.65352 -3.26087)
(-4.03867e-16 2.97046 2.70461)
(-2.0565e-15 2.95272 4.89755)
(-1.96434e-15 2.85868 6.24245)
(-2.25235e-15 3.12569 7.34521)
(-2.18161e-15 2.92603 8.21216)
(-2.8512e-15 3.23584 9.25831)
(-1.70956e-15 2.62393 7.83514)
(-3.07952e-15 6.14144 12.4957)
(-3.43548e-15 6.38172 12.8126)
(-4.00709e-15 6.4287 13.0387)
(-4.67057e-15 6.4718 13.2063)
(-5.55341e-15 6.54346 13.3371)
(-6.37742e-15 6.58749 13.445)
(-7.02171e-15 6.62821 13.5588)
(-7.56313e-15 6.67964 13.687)
(-7.84296e-15 6.6957 13.9215)
(-7.74427e-15 6.76887 14.2834)
(-7.76355e-15 6.69267 14.8088)
(-7.51103e-15 6.89941 15.6508)
(-7.56474e-15 6.65056 15.3568)
(-8.08028e-15 9.12061 15.9327)
(-5.65024e-15 4.48428 10.9023)
(-5.62843e-15 2.90881 10.5604)
(-6.05642e-15 2.02369 10.9724)
(-6.91041e-15 -0.525135 5.9576)
(-7.27485e-15 -0.856365 -5.14287)
(-8.25177e-15 -0.407491 -4.09891)
(-8.54396e-15 0.0904093 -4.48152)
(-1.25262e-14 0.871072 -5.21325)
(-1.06764e-14 -0.0805697 -4.14192)
(-1.33612e-14 0.203317 -3.73798)
(-4.59483e-15 -0.681774 -5.18318)
(8.30575e-16 -0.0206494 -4.62647)
(2.28388e-15 0.540903 -4.28161)
(4.13036e-15 0.9997 -5.33747)
(5.56715e-15 0.90397 5.62789)
(4.33809e-15 -1.79375 11.2574)
(3.82476e-15 -2.68881 10.7326)
(3.22968e-15 -4.26586 11.0062)
(3.9968e-15 -8.66288 15.7527)
(4.06256e-15 -6.50859 14.8311)
(2.67252e-15 -6.78054 14.8694)
(1.925e-15 -6.64594 14.0769)
(1.0658e-15 -6.74922 13.6777)
(5.00759e-16 -6.69771 13.3221)
(2.01112e-16 -6.70156 13.1074)
(1.62613e-16 -6.66848 12.9859)
(2.69807e-16 -6.64982 12.9262)
(4.81043e-16 -6.62528 12.9137)
(6.07943e-16 -6.60034 12.9455)
(6.53926e-16 -6.58969 13.0189)
(7.0947e-16 -6.59353 13.1139)
(7.72945e-16 -6.50168 13.1642)
(-8.26052e-16 -3.37946 9.71138)
(7.93892e-16 -3.71837 10.634)
(3.98579e-16 -3.44674 10.3378)
(4.52449e-16 -3.38804 9.98551)
(1.75784e-16 -3.03365 9.30642)
(-1.39916e-16 -3.42771 6.90301)
(-1.22893e-15 -3.05286 1.66628)
(-7.29696e-16 -2.7173 -2.76324)
(-9.18131e-16 -3.2862 -0.645262)
(-1.07292e-15 -3.05542 -1.76345)
(-1.06252e-15 -2.58692 -0.715461)
(-1.08001e-15 -2.36536 -0.906106)
(-1.38457e-15 -2.5935 -1.11152)
(-9.06801e-16 -2.11322 -0.600847)
(-9.05761e-16 -1.95189 -0.692586)
(-1.03669e-15 -2.19134 -0.844738)
(-6.2474e-16 -1.80046 -0.464387)
(-6.56289e-16 -1.67387 -0.540986)
(-5.94363e-16 -1.89969 -0.662583)
(5.64442e-17 -1.57285 -0.374601)
(9.08648e-17 -1.61737 -0.431253)
(9.11935e-17 -1.39564 -0.435407)
(1.51512e-16 -1.74661 -0.527247)
(1.27819e-16 -1.55517 -0.337473)
(1.36632e-16 -1.24247 -0.350516)
(1.25629e-16 -1.53694 -0.318424)
(-1.22835e-17 -2.49788 -0.0488976)
(-1.04646e-13 77.1421 68.2415)
(2.48695e-14 -9.41903 -8.97899)
(5.62815e-15 17.2523 23.433)
(2.37415e-15 2.54676 7.5029)
(1.09446e-15 6.4874 13.2615)
(-5.44235e-16 3.27512 9.24574)
(-6.17636e-16 3.32881 8.22141)
(-2.60804e-16 1.50229 4.16933)
(1.40064e-16 -1.3622 -0.0444533)
(-1.39886e-16 -3.87173 -1.61609)
(-9.21542e-18 -4.7391 -0.706425)
(1.34958e-17 -4.00341 0.634846)
(-1.68473e-18 -2.67467 1.20755)
(-9.93777e-20 -1.413 1.22947)
(3.83133e-19 -0.632605 0.72168)
(-2.3162e-19 -1.06212 -0.150809)
(-1.01088e-18 -1.2362 -0.11017)
(-3.48787e-19 -1.18657 -0.038249)
(1.8865e-18 -1.27574 0.215274)
(-1.23527e-13 -39.9113 -10.3256)
(7.39202e-15 8.41186 7.85149)
(-2.37319e-15 -10.2309 3.0246)
(1.30797e-15 -1.93362 4.88443)
(-3.49104e-16 -4.00359 5.06445)
(-2.56726e-16 -0.869693 5.55966)
(3.19316e-16 0.378019 5.39197)
(1.30272e-15 1.90282 4.32313)
(1.91801e-15 1.26389 1.84083)
(4.11584e-16 -2.48676 -2.06906)
(-8.93621e-17 -4.52699 -2.16971)
(-2.30904e-17 -4.04225 0.0689413)
(1.08445e-17 -2.1352 2.26239)
(-7.79855e-18 -0.487388 2.24862)
(-3.26862e-17 0.369685 0.470402)
(5.70947e-18 -0.726496 -0.398405)
(5.83675e-18 -1.10987 -0.236436)
(-1.6727e-19 -1.12121 -0.202645)
(-2.17049e-18 -1.1215 0.17426)
(-1.49984e-13 23.1789 13.6242)
(2.3361e-14 -0.32514 -1.76165)
(-2.36468e-15 6.71615 8.97237)
(1.13126e-15 2.66153 6.1634)
(-3.44892e-16 3.01339 6.86286)
(5.43318e-16 2.23443 5.11884)
(1.62605e-15 2.67606 4.18866)
(2.81184e-15 2.8161 2.98723)
(3.47599e-15 2.08503 2.04849)
(2.11298e-15 -1.22581 -0.524835)
(1.09125e-16 -3.67462 -1.80912)
(-1.21498e-16 -4.0513 -0.876838)
(2.94806e-18 -2.22441 1.65928)
(-1.95793e-17 0.1184 2.04954)
(-9.41516e-17 0.862229 -0.0947152)
(-7.50445e-17 -0.407633 -0.97146)
(-1.66665e-17 -0.863217 -0.429833)
(9.00684e-18 -0.837262 -0.328155)
(1.67185e-17 -0.597755 -0.200608)
(-1.11638e-13 -7.34798 6.33107)
(2.30282e-14 -0.398323 4.00074)
(-4.00798e-15 -4.01515 6.4782)
(1.65062e-15 -1.41695 5.45773)
(5.03832e-16 -0.729867 5.40767)
(1.94647e-15 0.939973 4.14125)
(3.06276e-15 1.98561 3.67098)
(3.99952e-15 2.87164 3.27924)
(4.25796e-15 2.59013 3.09183)
(2.84467e-15 -1.03521 1.04185)
(6.41594e-16 -3.74466 -0.709293)
(-1.60306e-16 -4.80863 -0.860131)
(-5.50122e-17 -3.16175 0.790306)
(-7.37554e-18 0.565133 1.54033)
(6.94956e-17 1.46542 -1.20369)
(2.01126e-16 -0.607816 -1.7715)
(-2.56309e-17 -1.23764 -1.08251)
(-4.65685e-17 -1.09523 -0.432918)
(1.07892e-16 -0.749326 -0.597624)
(-1.38286e-13 6.42193 10.7588)
(2.91697e-14 0.923623 2.33331)
(-4.84843e-15 2.69799 7.05782)
(2.82982e-15 1.82718 4.22709)
(1.79297e-15 2.10297 4.41179)
(3.28396e-15 2.20817 3.52255)
(4.00647e-15 2.60811 3.95439)
(4.65699e-15 3.00787 4.3785)
(4.6698e-15 2.83261 4.89733)
(3.00973e-15 -0.025381 3.63075)
(9.71359e-16 -3.38344 0.90308)
(-1.08972e-16 -4.93099 0.115137)
(-1.3721e-16 -3.61637 0.347552)
(-5.59383e-17 1.1059 0.184721)
(8.76725e-16 2.13923 -2.27802)
(1.20854e-15 -0.156542 -2.54747)
(4.01093e-16 -1.4657 -1.97595)
(7.47014e-18 -1.07889 -0.969331)
(4.66381e-17 -0.32005 -1.10371)
(-1.3304e-13 -2.37954 10.3185)
(2.95467e-14 -1.47164 1.83238)
(-4.4349e-15 -0.953815 6.18594)
(4.45838e-15 0.037999 3.58117)
(2.84121e-15 0.824629 4.24157)
(3.89859e-15 1.42326 4.04214)
(4.33553e-15 1.93864 5.09312)
(5.07967e-15 2.59564 6.03907)
(5.22721e-15 2.84083 6.96666)
(3.36622e-15 0.869189 6.40839)
(8.065e-16 -2.53069 3.47819)
(-4.13175e-17 -4.43178 1.82425)
(-2.22946e-16 -3.45435 0.754942)
(2.62574e-16 1.58446 -1.28814)
(2.93245e-15 2.49533 -1.15346)
(3.17128e-15 -0.45816 -1.35375)
(1.42478e-15 -1.72365 -1.43672)
(2.27067e-16 -1.70126 -0.570683)
(6.78428e-16 -1.01148 -1.85329)
(-1.55696e-13 2.11336 12.9107)
(3.79498e-14 -0.364624 0.713839)
(-5.9032e-15 1.6169 5.72105)
(5.51936e-15 1.3528 2.8938)
(2.86524e-15 1.56076 4.39271)
(3.76365e-15 1.50972 4.75504)
(4.39044e-15 1.70201 6.19601)
(5.61475e-15 2.23443 7.40591)
(6.2211e-15 2.66766 8.7232)
(4.29678e-15 1.40401 9.07035)
(7.08119e-16 -1.71546 6.8025)
(-2.13566e-16 -3.68025 4.32361)
(-1.82446e-16 -2.55975 1.99298)
(2.49774e-15 2.20045 -0.246724)
(5.48146e-15 1.95418 3.26792)
(3.23145e-15 -1.29704 1.72893)
(1.82448e-15 -1.5871 -0.667927)
(5.23945e-16 -0.18708 -0.701478)
(-2.74501e-15 0.984561 -1.90913)
(-1.9958e-13 -1.3854 14.2516)
(4.92261e-14 -0.845344 -0.438884)
(-8.6957e-15 0.386335 5.79519)
(5.19975e-15 0.40511 3.09392)
(2.15179e-15 0.681382 5.13337)
(3.30764e-15 0.737124 5.70324)
(4.34205e-15 1.0101 7.09602)
(6.06041e-15 1.62557 8.29643)
(7.31438e-15 2.21523 9.95127)
(5.93148e-15 1.59878 11.3071)
(1.16857e-15 -0.811226 10.0841)
(-1.12694e-15 -2.52295 6.87918)
(2.03325e-16 -1.46749 3.80348)
(5.83767e-15 1.30561 4.91145)
(6.63523e-15 1.63521 8.23848)
(2.97762e-15 0.673705 7.02607)
(1.32351e-15 -0.567083 4.92439)
(1.3835e-15 -2.03508 6.32819)
(2.13378e-15 -6.19082 10.8205)
(-2.57608e-13 0.824347 16.1289)
(6.32877e-14 -0.304708 -2.05538)
(-1.30148e-14 1.14629 6.14943)
(4.47566e-15 0.709491 3.45717)
(1.21182e-15 0.639145 5.78735)
(2.4884e-15 0.52937 6.21966)
(3.55533e-15 0.661579 7.36896)
(5.29585e-15 1.07084 8.50417)
(7.18272e-15 1.50254 10.5131)
(7.91612e-15 1.31223 12.8889)
(5.64301e-15 0.0494664 13.3664)
(3.13541e-15 -1.18315 10.9048)
(4.88502e-15 -1.12764 8.54267)
(9.0066e-15 0.259137 9.94376)
(9.03634e-15 0.836531 12.1783)
(6.98564e-15 0.100982 13.2068)
(5.40605e-15 -1.11474 12.8143)
(5.51851e-15 -2.28052 11.9366)
(6.17341e-15 -3.21559 10.9975)
(-3.64969e-13 -0.931828 19.1755)
(9.24204e-14 -0.188734 -4.74632)
(-1.41237e-14 0.0268103 6.73186)
(3.7776e-15 -0.0742208 3.95084)
(-1.78642e-16 -0.0414464 6.23645)
(2.56047e-16 0.0162698 6.37424)
(4.6014e-16 0.160222 7.32188)
(1.21274e-15 0.365183 8.5046)
(2.91944e-15 0.509734 10.7632)
(5.60967e-15 0.395695 13.5384)
(7.84482e-15 -0.122206 14.8858)
(7.72232e-15 -0.712015 13.2204)
(7.39495e-15 -0.865156 9.88208)
(8.53762e-15 -0.0817663 8.24114)
(9.16546e-15 0.542312 9.85508)
(1.00201e-14 0.359751 11.931)
(9.46406e-15 -0.415694 11.7556)
(8.4771e-15 -1.44997 8.89637)
(5.71585e-15 -2.55051 4.56588)
(-1.23853e-13 1.03714 18.6734)
(3.65678e-14 0.25049 -4.39046)
(-5.73056e-15 -0.0657423 6.71933)
(1.34403e-15 0.0233174 3.93688)
(-2.82492e-15 -0.0205699 6.18742)
(-5.37171e-15 -0.0523496 6.31781)
(-8.11219e-15 -0.149027 7.28162)
(-1.01461e-14 -0.31346 8.49956)
(-1.21553e-14 -0.446552 10.7863)
(-1.41906e-14 -0.342033 13.5671)
(-1.49311e-14 0.172252 14.9087)
(-1.31793e-14 0.779826 13.2343)
(-1.10509e-14 0.95176 9.8294)
(-8.78564e-15 0.120739 7.95002)
(-5.91212e-15 -0.595108 9.29729)
(-5.52681e-15 -0.629075 11.3488)
(-6.86286e-15 0.0555841 11.2833)
(-8.04721e-15 1.21679 8.63021)
(-9.5284e-15 2.58948 4.5589)
(-3.62134e-14 -0.749448 15.764)
(1.08228e-14 0.308052 -1.88886)
(-1.04777e-15 -1.13722 6.15883)
(9.20939e-16 -0.734256 3.45986)
(-2.47353e-15 -0.681836 5.71356)
(-6.08456e-15 -0.564621 6.1041)
(-9.92024e-15 -0.668052 7.25561)
(-1.29515e-14 -1.04342 8.43256)
(-1.4507e-14 -1.45424 10.4927)
(-1.29135e-14 -1.26038 12.9014)
(-7.05293e-15 0.00816434 13.4043)
(-3.11104e-15 1.27547 10.9977)
(-6.03869e-15 1.29058 8.7133)
(-1.15736e-14 -0.123242 10.1898)
(-1.11024e-14 -0.859161 12.4535)
(-9.07774e-15 -0.455783 13.7028)
(-8.0552e-15 0.72392 13.6096)
(-7.90462e-15 2.01531 12.3055)
(-8.13029e-15 3.18754 11.1546)
(-1.28557e-14 1.40815 14.1516)
(3.03309e-15 0.835139 -0.378392)
(4.66325e-16 -0.366137 5.82144)
(6.44388e-16 -0.411871 3.12396)
(-1.29929e-15 -0.700742 5.09575)
(-4.67714e-15 -0.7585 5.60939)
(-8.66707e-15 -1.01705 6.97507)
(-1.19888e-14 -1.6106 8.18512)
(-1.2793e-14 -2.18291 9.8751)
(-8.62633e-15 -1.56724 11.2764)
(-6.26065e-16 0.827607 10.1049)
(1.99882e-15 2.53721 6.95205)
(-5.62302e-16 1.49756 4.01551)
(-8.69408e-15 -1.30131 5.57662)
(-1.01919e-14 -1.78793 9.07784)
(-6.17302e-15 -1.04869 8.48609)
(-3.49216e-15 0.274776 6.14693)
(-3.78195e-15 2.02127 6.63482)
(-5.53128e-15 6.29893 10.6419)
(6.17772e-16 -2.10282 12.9414)
(-6.73295e-16 0.346247 0.74116)
(7.83295e-16 -1.61174 5.74502)
(8.76878e-17 -1.35053 2.93074)
(-4.51599e-16 -1.55939 4.39237)
(-2.88201e-15 -1.51276 4.71043)
(-6.28901e-15 -1.7019 6.11469)
(-9.51624e-15 -2.22497 7.31296)
(-1.01615e-14 -2.65104 8.64904)
(-6.07139e-15 -1.39416 9.06102)
(-4.84975e-16 1.72567 6.88319)
(4.53054e-16 3.67974 4.40781)
(1.42417e-16 2.41436 2.08175)
(-4.58579e-15 -2.26904 0.715143)
(-8.9215e-15 -2.17651 4.20454)
(-5.74861e-15 0.565655 3.05406)
(-2.82736e-15 1.45023 -0.358532)
(-6.1342e-16 0.588534 -0.533465)
(2.09164e-15 -0.954361 -2.95954)
(7.75485e-15 2.42146 10.3534)
(-2.43936e-15 1.46305 1.84934)
(8.99037e-16 0.966067 6.20422)
(-4.15437e-16 -0.0257666 3.61057)
(-1.75535e-16 -0.807528 4.26014)
(-1.60424e-15 -1.40923 4.03972)
(-4.00249e-15 -1.92582 5.06348)
(-6.82649e-15 -2.5846 5.99479)
(-7.74813e-15 -2.83885 6.93139)
(-4.68231e-15 -0.893674 6.4382)
(-8.50935e-16 2.51843 3.57185)
(8.51644e-17 4.43296 1.88672)
(2.84259e-16 3.28084 0.812081)
(-9.09207e-16 -2.0248 -1.03712)
(-5.53098e-15 -2.82224 -0.374133)
(-6.26644e-15 1.02162 -0.325833)
(-2.85513e-15 1.90279 -1.31225)
(-6.2057e-16 2.13607 -0.529163)
(-5.68298e-17 1.65771 -1.1071)
(2.0394e-14 -6.42553 10.7899)
(-4.76611e-15 -0.934653 2.34908)
(1.45118e-15 -2.70131 7.07408)
(-6.95722e-16 -1.82976 4.24957)
(-1.4068e-16 -2.09611 4.43398)
(-9.53784e-16 -2.19619 3.54119)
(-2.36278e-15 -2.59394 3.96213)
(-4.5279e-15 -2.99865 4.38043)
(-5.76305e-15 -2.84271 4.90621)
(-3.84931e-15 -0.0249817 3.70205)
(-1.03777e-15 3.37484 0.977556)
(1.04801e-16 4.93958 0.135977)
(1.58603e-16 3.50527 0.400413)
(4.84055e-17 -1.47138 -0.0505539)
(-2.01675e-15 -2.61215 -2.14657)
(-3.01943e-15 -0.199806 -2.40518)
(-1.13691e-15 1.64408 -2.02512)
(-1.04811e-16 1.3914 -1.05541)
(2.03217e-16 0.577401 -0.807427)
(2.09313e-14 7.39015 6.34962)
(-4.64037e-15 0.388613 4.00013)
(1.92851e-15 4.02521 6.48744)
(-6.83311e-16 1.43428 5.47231)
(-9.02178e-17 0.757718 5.43261)
(-6.57914e-16 -0.91347 4.17437)
(-1.44646e-15 -1.96238 3.70712)
(-2.89199e-15 -2.8616 3.32055)
(-4.15563e-15 -2.60981 3.14104)
(-3.106e-15 0.97558 1.14616)
(-6.58987e-16 3.7469 -0.675803)
(1.45829e-16 4.8245 -0.843518)
(5.90332e-17 3.09778 0.850416)
(1.80946e-17 -1.03473 1.27299)
(-3.90614e-16 -1.9676 -1.41853)
(-9.13578e-16 0.363487 -2.11747)
(-1.26008e-16 1.49823 -1.40356)
(7.34672e-17 1.41512 -0.634976)
(-5.16417e-18 1.05053 -0.476034)
(4.64899e-14 -23.1981 13.6537)
(-7.69299e-15 0.312811 -1.74304)
(2.09551e-15 -6.72844 8.98079)
(-5.12748e-16 -2.67807 6.17727)
(7.20734e-17 -3.02517 6.88891)
(-3.7718e-16 -2.23509 5.15792)
(-9.14554e-16 -2.67022 4.242)
(-1.86487e-15 -2.81606 3.05733)
(-2.87312e-15 -2.10965 2.12767)
(-1.99642e-15 1.2046 -0.451247)
(-1.42144e-16 3.68695 -1.79973)
(1.06408e-16 4.06499 -0.846305)
(-2.87828e-18 2.19329 1.73518)
(2.91402e-17 -0.544203 1.88453)
(5.32005e-17 -1.26879 -0.232964)
(-4.12718e-17 0.39287 -1.35318)
(2.7655e-17 1.06517 -0.755508)
(1.20063e-19 1.02868 -0.461943)
(-7.22697e-18 0.790315 -0.134324)
(4.4871e-14 40.0209 -10.3273)
(-3.29501e-15 -8.4108 7.82106)
(2.99497e-15 10.2597 3.02172)
(-1.97465e-16 1.9524 4.88056)
(1.46207e-16 4.03512 5.07175)
(-1.50946e-16 0.895181 5.58526)
(-5.3781e-16 -0.360277 5.44323)
(-1.14362e-15 -1.90247 4.39838)
(-1.61773e-15 -1.2898 1.92304)
(-4.46474e-16 2.47017 -2.04815)
(5.69793e-17 4.54027 -2.1624)
(2.18987e-17 4.03382 0.112999)
(-1.07879e-17 2.06956 2.37913)
(2.11645e-17 0.08202 2.33256)
(7.73784e-17 -0.779684 0.331015)
(4.09923e-17 0.559877 -0.896662)
(-5.41992e-18 1.21146 -0.499425)
(-5.34562e-18 1.28873 -0.301101)
(1.08622e-18 1.32266 0.206486)
(7.17884e-14 -77.2477 68.3029)
(-1.31075e-14 9.4016 -8.94772)
(3.40158e-15 -17.3013 23.4684)
(-3.67062e-16 -2.5818 7.53886)
(5.6802e-16 -6.52377 13.2997)
(4.99412e-16 -3.30256 9.28901)
(3.41039e-16 -3.35138 8.27034)
(-9.2258e-17 -1.521 4.22113)
(-2.65637e-16 1.34255 -0.00720684)
(9.29771e-17 3.86738 -1.62347)
(1.34292e-17 4.74079 -0.702963)
(-1.07454e-17 3.97525 0.662173)
(1.43737e-18 2.57405 1.29942)
(1.08168e-18 1.07144 1.46837)
(9.36937e-18 0.216804 0.814797)
(-4.58974e-18 1.05596 -0.297987)
(1.33538e-18 1.32661 -0.204944)
(1.13353e-18 1.33277 -0.0796409)
(-1.93123e-19 1.45674 0.225774)
(2.44224e-17 8.31679 14.7562)
(-6.12385e-15 10.2072 17.073)
(-4.4725e-15 9.64287 16.3586)
(-4.61265e-15 9.72034 16.0002)
(-4.69786e-15 9.56171 15.8642)
(-6.63753e-15 9.63665 15.6721)
(-4.94353e-15 9.35604 15.2578)
(-4.05949e-15 9.42011 15.2896)
(-4.20981e-15 9.34883 15.3229)
(-4.38967e-15 9.37285 15.3065)
(-4.23461e-15 9.30081 15.3358)
(-4.34682e-15 9.31998 15.3636)
(-4.24962e-15 9.28357 15.4124)
(-4.18472e-15 9.29315 15.4596)
(-4.02124e-15 9.27604 15.5113)
(-3.97668e-15 9.32315 15.6513)
(-3.68587e-15 9.46877 15.9452)
(-3.92514e-15 9.7645 16.558)
(-3.87398e-15 10.1214 17.049)
(-4.80876e-15 7.27606 12.4641)
(-1.54423e-16 7.61421 13.2064)
(-5.56694e-15 8.84089 15.3302)
(-3.78332e-15 8.48249 14.85)
(-4.0124e-15 8.56811 14.869)
(-4.20998e-15 8.45214 14.8192)
(-6.3757e-15 8.50002 14.7473)
(-3.58439e-15 8.44272 14.7687)
(-3.81788e-15 8.50003 14.6837)
(-4.03465e-15 8.44603 14.6746)
(-3.9526e-15 8.51829 14.6689)
(-4.35233e-15 8.50557 14.7038)
(-4.33289e-15 8.57577 14.7294)
(-4.31107e-15 8.57967 14.7849)
(-4.31486e-15 8.64604 14.8253)
(-3.76086e-15 8.66339 14.907)
(-3.66012e-15 8.78689 15.0575)
(-3.65033e-15 8.97388 15.4411)
(-3.8049e-15 9.41451 16.1616)
(-3.62238e-15 9.82117 16.8804)
(-5.0262e-15 6.5268 11.1345)
(-2.26161e-17 7.49389 13.2015)
(-1.85689e-15 9.36624 16.2428)
(-1.37255e-15 8.86525 15.4281)
(-1.48117e-15 8.8606 15.3609)
(-1.48139e-15 8.798 15.2911)
(-3.97736e-15 8.79064 15.223)
(-1.74528e-15 8.73964 15.1549)
(-1.89039e-15 8.74842 15.1246)
(-1.89881e-15 8.73575 15.106)
(-1.72438e-15 8.75987 15.0967)
(-2.19379e-15 8.76233 15.1042)
(-1.88267e-15 8.79759 15.1122)
(-1.87594e-15 8.80777 15.141)
(-1.66717e-15 8.84953 15.1569)
(-1.828e-15 8.86423 15.2053)
(-1.74973e-15 8.94589 15.2896)
(-1.81544e-15 9.085 15.578)
(-1.77018e-15 9.51003 16.2969)
(-1.64996e-15 9.95662 17.1003)
(-2.55182e-15 6.2798 10.7577)
(1.8561e-17 7.14365 12.458)
(4.30852e-16 9.27168 16.1215)
(3.10574e-16 8.7446 15.2196)
(3.53666e-16 8.74804 15.1954)
(2.73845e-16 8.72003 15.1666)
(-2.54436e-15 8.72456 15.1303)
(-1.82032e-15 8.71048 15.1123)
(-1.82721e-15 8.72736 15.0913)
(-2.09936e-15 8.72729 15.0876)
(-2.00493e-15 8.75228 15.0839)
(-2.14595e-15 8.76242 15.0945)
(-1.73837e-15 8.79182 15.102)
(-1.6446e-15 8.80827 15.1275)
(-1.86016e-15 8.84215 15.1445)
(-1.94903e-15 8.8625 15.1842)
(-1.81375e-15 8.91796 15.2393)
(-1.73782e-15 9.01913 15.4403)
(-1.92504e-15 9.43338 16.1513)
(-1.81175e-15 9.8848 16.9727)
(-2.87585e-15 5.9008 10.0908)
(-6.79246e-18 6.97415 12.1715)
(-1.03031e-16 9.38402 16.279)
(-6.59422e-17 8.83856 15.364)
(-8.61263e-17 8.83789 15.3099)
(-5.16915e-17 8.82021 15.3047)
(5.54586e-16 8.83346 15.2797)
(4.02431e-16 8.82624 15.2729)
(4.23347e-16 8.84191 15.2594)
(4.30426e-16 8.84508 15.2567)
(4.13069e-16 8.86058 15.2497)
(4.87605e-16 8.86943 15.251)
(4.42724e-16 8.88568 15.2508)
(4.40242e-16 8.89951 15.2611)
(4.01172e-16 8.91865 15.27)
(4.2159e-16 8.93558 15.2903)
(4.09565e-16 8.96053 15.3122)
(4.10709e-16 9.01846 15.4208)
(4.15745e-16 9.40903 16.1007)
(3.96157e-16 9.8171 16.8284)
(6.03093e-16 5.59501 9.58741)
(1.90236e-18 6.82293 11.8776)
(2.40716e-17 9.40853 16.2843)
(1.52224e-17 8.87113 15.4056)
(1.98069e-17 8.86723 15.3281)
(9.06567e-18 8.85136 15.3423)
(-1.21682e-16 8.87382 15.3271)
(-9.36781e-17 8.86688 15.3323)
(-9.62601e-17 8.88378 15.3229)
(-9.27881e-17 8.8844 15.3241)
(-9.09902e-17 8.89674 15.3182)
(-1.05881e-16 8.90238 15.3178)
(-1.02631e-16 8.91261 15.3159)
(-1.01397e-16 8.92271 15.3186)
(-9.38787e-17 8.93361 15.3237)
(-9.8723e-17 8.94615 15.3312)
(-9.01246e-17 8.95197 15.3312)
(-9.18237e-17 8.98667 15.39)
(-9.37579e-17 9.38157 16.0665)
(-8.92056e-17 9.69009 16.6062)
(-1.32511e-16 5.25726 9.01057)
(-4.53857e-19 6.77541 11.7924)
(-5.45622e-18 9.44968 16.3131)
(-3.55641e-18 8.91702 15.4739)
(-4.5315e-18 8.90349 15.3709)
(-1.43113e-18 8.88344 15.3921)
(2.78157e-17 8.90703 15.3824)
(2.16739e-17 8.89608 15.3908)
(2.13795e-17 8.9107 15.3852)
(2.1892e-17 8.90728 15.3882)
(2.06431e-17 8.91644 15.3846)
(2.30038e-17 8.91767 15.3844)
(2.34683e-17 8.92415 15.3827)
(2.30873e-17 8.92908 15.3821)
(2.18789e-17 8.93504 15.3842)
(2.33399e-17 8.94122 15.3828)
(2.13309e-17 8.93486 15.3674)
(2.13865e-17 8.97069 15.4233)
(2.18117e-17 9.39054 16.132)
(2.04005e-17 9.56342 16.4221)
(2.92021e-17 4.95282 8.51921)
(9.80306e-20 6.77732 11.7852)
(1.21461e-18 9.46023 16.3112)
(8.31377e-19 8.92703 15.4819)
(1.06761e-18 8.89942 15.3651)
(1.95524e-19 8.87876 15.388)
(-6.50213e-18 8.89813 15.3843)
(-5.08967e-18 8.88578 15.3946)
(-4.93284e-18 8.89648 15.3939)
(-5.31764e-18 8.89083 15.4001)
(-4.74985e-18 8.89724 15.4008)
(-5.14626e-18 8.89554 15.4045)
(-5.35138e-18 8.90013 15.4062)
(-5.3373e-18 8.90131 15.4084)
(-5.12755e-18 8.90519 15.4117)
(-5.46647e-18 8.90643 15.4086)
(-5.07592e-18 8.89451 15.3888)
(-5.08241e-18 8.94934 15.4747)
(-5.11278e-18 9.39296 16.2298)
(-4.74716e-18 9.43719 16.2934)
(-6.47396e-18 4.75117 8.24135)
(-2.0885e-20 6.81753 11.8412)
(-2.76355e-19 9.45284 16.2938)
(-1.98635e-19 8.91644 15.4582)
(-2.58752e-19 8.87504 15.3338)
(-2.36824e-20 8.85611 15.3563)
(1.52603e-18 8.86934 15.3565)
(1.21918e-18 8.85722 15.3677)
(1.17451e-18 8.86325 15.3707)
(1.28253e-18 8.85668 15.3794)
(1.11678e-18 8.85985 15.3839)
(1.19761e-18 8.85625 15.3916)
(1.23074e-18 8.85865 15.3968)
(1.24806e-18 8.85703 15.4037)
(1.22022e-18 8.85911 15.4099)
(1.26896e-18 8.85683 15.4099)
(1.2052e-18 8.84337 15.3944)
(1.22796e-18 8.9124 15.5051)
(1.20584e-18 9.35028 16.2787)
(1.13629e-18 9.34067 16.2576)
(1.43723e-18 4.78562 8.39755)
(4.72674e-21 6.88628 11.9373)
(6.75675e-20 9.42153 16.2388)
(4.99133e-20 8.89067 15.4056)
(6.46784e-20 8.84018 15.2788)
(4.38002e-21 8.82387 15.3006)
(-3.64506e-19 8.83256 15.3026)
(-2.97247e-19 8.82115 15.314)
(-2.855e-19 8.82384 15.3187)
(-3.08905e-19 8.81682 15.3286)
(-2.72825e-19 8.8173 15.3351)
(-2.91974e-19 8.8123 15.3448)
(-2.92771e-19 8.81239 15.3521)
(-3.02205e-19 8.80843 15.3621)
(-2.97872e-19 8.80849 15.3703)
(-2.99806e-19 8.80404 15.3756)
(-2.92985e-19 8.7916 15.3675)
(-3.02748e-19 8.84657 15.4588)
(-2.92361e-19 9.23092 16.1743)
(-2.82986e-19 9.31773 16.3419)
(-3.16502e-19 5.12199 9.06576)
(-1.17431e-21 6.99041 12.0918)
(-1.78061e-20 9.37936 16.1602)
(-1.32598e-20 8.86362 15.3452)
(-1.66741e-20 8.80986 15.2199)
(-1.55421e-21 8.79607 15.2403)
(9.07873e-20 8.80256 15.2424)
(7.42397e-20 8.79201 15.2526)
(7.15281e-20 8.79307 15.257)
(7.60129e-20 8.78601 15.2661)
(6.98396e-20 8.78494 15.2722)
(7.41606e-20 8.77917 15.2813)
(7.32838e-20 8.77766 15.2882)
(7.70626e-20 8.77207 15.2981)
(7.55589e-20 8.77076 15.3058)
(7.47129e-20 8.76511 15.3148)
(7.42597e-20 8.75583 15.3129)
(7.65571e-20 8.77524 15.3506)
(7.43105e-20 9.05861 15.9003)
(7.32033e-20 9.3586 16.4665)
(6.98876e-20 5.70449 10.125)
(2.97814e-22 7.1329 12.3147)
(4.74651e-21 9.33257 16.0709)
(3.5557e-21 8.83757 15.2845)
(4.29414e-21 8.78706 15.1686)
(5.34424e-22 8.77576 15.1869)
(-2.34664e-20 8.78154 15.1885)
(-1.88752e-20 8.77244 15.197)
(-1.83854e-20 8.77317 15.2004)
(-1.91464e-20 8.76698 15.2076)
(-1.82682e-20 8.76563 15.2123)
(-1.908e-20 8.76031 15.2195)
(-1.89215e-20 8.75852 15.2247)
(-2.01846e-20 8.7528 15.2327)
(-1.96305e-20 8.75157 15.2382)
(-1.94524e-20 8.74534 15.2474)
(-1.92304e-20 8.74121 15.249)
(-1.96178e-20 8.73482 15.2509)
(-1.94105e-20 8.90246 15.5759)
(-1.92361e-20 9.36363 16.4422)
(-1.56235e-20 6.37638 11.2897)
(-6.81545e-23 7.30726 12.5987)
(-1.17348e-21 9.27989 15.9746)
(-8.87479e-22 8.81088 15.2268)
(-1.03779e-21 8.76957 15.1294)
(-1.19986e-22 8.76043 15.1453)
(5.99795e-21 8.76585 15.1467)
(4.69976e-21 8.75855 15.1536)
(4.63666e-21 8.75944 15.1563)
(4.74532e-21 8.75472 15.162)
(4.63341e-21 8.75378 15.1658)
(4.74028e-21 8.74977 15.1713)
(4.77648e-21 8.7486 15.1752)
(5.12311e-21 8.74401 15.1815)
(4.96449e-21 8.74374 15.1851)
(4.97324e-21 8.73787 15.1927)
(4.82775e-21 8.73813 15.1951)
(4.89513e-21 8.72648 15.1935)
(4.91833e-21 8.80827 15.3411)
(4.89491e-21 9.28706 16.2332)
(3.48226e-21 6.97112 12.2766)
(1.24535e-23 7.49718 12.9164)
(2.50483e-22 9.21835 15.869)
(1.90513e-22 8.78372 15.1743)
(2.19356e-22 8.75414 15.0996)
(1.10192e-23 8.74655 15.1132)
(-1.4232e-21 8.75149 15.1145)
(-1.07978e-21 8.74581 15.1204)
(-1.07329e-21 8.74681 15.123)
(-1.08775e-21 8.74351 15.1278)
(-1.07728e-21 8.743 15.1313)
(-1.07732e-21 8.74036 15.136)
(-1.10958e-21 8.73986 15.1395)
(-1.18382e-21 8.73666 15.1448)
(-1.14991e-21 8.73728 15.1479)
(-1.16233e-21 8.73265 15.1544)
(-1.10877e-21 8.73478 15.1564)
(-1.12965e-21 8.72602 15.1595)
(-1.13711e-21 8.7688 15.2284)
(-1.13755e-21 9.17698 15.9768)
(-7.42272e-22 7.40383 12.9687)
(-1.48197e-24 7.68844 13.2413)
(-4.4191e-23 9.1497 15.7553)
(-3.33113e-23 8.75856 15.1293)
(-3.84596e-23 8.73983 15.0757)
(3.28025e-24 8.73316 15.0873)
(2.98597e-22 8.73752 15.0884)
(2.16168e-22 8.73306 15.0937)
(2.14457e-22 8.73395 15.0964)
(2.17807e-22 8.73169 15.1007)
(2.19896e-22 8.73135 15.1041)
(2.14027e-22 8.72969 15.1084)
(2.26351e-22 8.72953 15.1119)
(2.37076e-22 8.72736 15.1169)
(2.32729e-22 8.72845 15.12)
(2.35304e-22 8.72491 15.1262)
(2.22578e-22 8.72782 15.1284)
(2.31051e-22 8.72119 15.1329)
(2.29289e-22 8.7489 15.1753)
(2.30056e-22 9.08345 15.7795)
(1.43987e-22 7.69256 13.4275)
(2.54104e-26 7.87519 13.5601)
(6.88633e-24 9.07706 15.6359)
(5.09097e-24 8.73673 15.0916)
(5.89641e-24 8.7267 15.0552)
(-1.37273e-24 8.72052 15.065)
(-5.50005e-23 8.72424 15.0662)
(-3.74188e-23 8.72072 15.0709)
(-3.65023e-23 8.72128 15.0736)
(-3.77629e-23 8.71975 15.0775)
(-3.95242e-23 8.71934 15.0809)
(-3.72619e-23 8.71828 15.0849)
(-4.05663e-23 8.71812 15.0885)
(-4.09594e-23 8.71661 15.0932)
(-4.12104e-23 8.71776 15.0964)
(-4.0989e-23 8.71478 15.1026)
(-3.89714e-23 8.71831 15.1049)
(-4.19689e-23 8.71225 15.1107)
(-4.02064e-23 8.73179 15.1373)
(-4.05234e-23 9.0071 15.6343)
(-2.51305e-23 7.90171 13.7702)
(1.53829e-26 8.05791 13.8717)
(-1.53938e-24 9.00119 15.5102)
(-1.20867e-24 8.71799 15.0598)
(-1.29899e-24 8.71477 15.0366)
(-2.81679e-26 8.70895 15.0448)
(1.01479e-23 8.71192 15.0461)
(6.95533e-24 8.70932 15.0502)
(6.62886e-24 8.70944 15.053)
(6.98052e-24 8.70842 15.0565)
(7.51871e-24 8.7079 15.06)
(7.05381e-24 8.70718 15.0637)
(7.66277e-24 8.70689 15.0673)
(7.46804e-24 8.70588 15.0716)
(7.73794e-24 8.70669 15.075)
(7.46553e-24 8.70421 15.0809)
(7.14391e-24 8.70788 15.0832)
(8.00561e-24 8.70163 15.0904)
(7.34323e-24 8.71684 15.1052)
(7.61352e-24 8.93308 15.5036)
(4.61975e-24 8.08215 14.074)
(1.15441e-26 8.23928 14.1794)
(6.49631e-25 8.92113 15.3754)
(5.61318e-25 8.7017 15.0324)
(5.60567e-25 8.70369 15.0189)
(2.29814e-25 8.69857 15.0253)
(-2.60956e-24 8.70041 15.0269)
(-2.17481e-24 8.69879 15.0302)
(-2.11704e-24 8.69846 15.033)
(-2.14455e-24 8.69776 15.0361)
(-2.18614e-24 8.69717 15.0394)
(-2.18484e-24 8.69662 15.0428)
(-2.21689e-24 8.69621 15.0464)
(-2.24177e-24 8.69559 15.0504)
(-2.27744e-24 8.69588 15.054)
(-2.21524e-24 8.69427 15.0594)
(-2.05458e-24 8.69725 15.062)
(-2.25241e-24 8.69128 15.0701)
(-2.10266e-24 8.70425 15.0763)
(-2.30035e-24 8.85557 15.3706)
(-1.2687e-24 8.25502 14.366)
(-1.12307e-26 8.42312 14.4924)
(-3.06532e-25 8.83821 15.2312)
(-2.7526e-25 8.6907 15.012)
(-2.71108e-25 8.69523 15.0051)
(-1.33412e-25 8.69184 15.0089)
(1.03322e-24 8.69214 15.0105)
(1.01483e-24 8.69116 15.0126)
(1.02837e-24 8.69037 15.0148)
(9.91101e-25 8.68953 15.0171)
(9.37393e-25 8.68864 15.0197)
(9.9006e-25 8.68776 15.0224)
(9.52151e-25 8.6869 15.0254)
(1.02616e-24 8.68606 15.0287)
(9.93425e-25 8.68544 15.0321)
(1.0101e-24 8.68434 15.0364)
(8.98705e-25 8.68532 15.0397)
(9.31729e-25 8.68103 15.0469)
(9.22275e-25 8.69107 15.0483)
(1.02934e-24 8.77265 15.2324)
(5.17309e-25 8.42324 14.6449)
(4.06269e-27 8.61058 14.8239)
(9.7143e-26 8.75272 15.0801)
(8.87041e-26 8.69281 15.0032)
(8.75949e-26 8.695 15.0014)
(4.13736e-26 8.69442 15.0021)
(-3.47445e-25 8.69407 15.0026)
(-3.60801e-25 8.69366 15.0031)
(-3.73504e-25 8.69305 15.0038)
(-3.52004e-25 8.69232 15.0046)
(-3.21543e-25 8.69143 15.0056)
(-3.45377e-25 8.69038 15.0067)
(-3.28079e-25 8.68914 15.008)
(-3.65521e-25 8.68772 15.0095)
(-3.43676e-25 8.68605 15.0113)
(-3.6031e-25 8.68417 15.0133)
(-3.13473e-25 8.68208 15.0156)
(-3.14255e-25 8.67892 15.0189)
(-3.21263e-25 8.67938 15.02)
(-3.59384e-25 8.69418 15.0844)
(-1.72345e-25 8.5934 14.8933)
(-3.51361e-26 -2.61793 17.0728)
(-1.41612e-25 -8.05628 13.7056)
(-1.10728e-25 -5.19003 14.548)
(2.06649e-26 -5.00174 14.1533)
(2.17678e-25 -4.09005 14.1071)
(3.88259e-25 -3.53809 13.9292)
(4.39766e-25 -2.98315 13.772)
(3.97874e-25 -2.54082 13.5921)
(3.17037e-25 -2.16645 13.4033)
(3.06202e-25 -1.863 13.1919)
(6.07017e-25 -1.61387 12.944)
(1.4276e-24 -1.41365 12.6485)
(2.31261e-24 -1.26584 12.3064)
(1.57144e-24 -1.18858 11.922)
(-2.67574e-24 -1.2006 11.4936)
(-9.11497e-24 -1.26758 11.0282)
(-1.10757e-23 -1.38673 10.4693)
(-4.10593e-24 -1.79063 9.50556)
(-4.59771e-24 -1.86002 8.00053)
(-2.51064e-23 0.39284 5.79186)
(-4.29068e-26 -11.0749 28.4078)
(3.23954e-25 -17.0638 24.8059)
(6.20821e-25 -11.9842 25.1905)
(6.82941e-25 -12.7098 23.4101)
(9.72919e-26 -10.9751 22.6227)
(-1.24293e-24 -10.3451 21.4777)
(-2.38111e-24 -9.37537 20.5163)
(-2.88256e-24 -8.63897 19.5352)
(-2.80904e-24 -7.92191 18.6264)
(-2.17957e-24 -7.31693 17.77)
(-1.63898e-24 -6.79638 16.9671)
(-3.78288e-24 -6.35859 16.1582)
(-1.18235e-23 -5.96106 15.2613)
(-2.18545e-23 -5.56934 14.2263)
(-1.34512e-23 -5.17359 13.0643)
(3.72127e-23 -4.72789 11.7597)
(7.04207e-23 -3.99494 9.96747)
(-2.27423e-22 -2.39337 6.44933)
(-1.23598e-21 0.682726 -0.0116979)
(-1.85597e-21 2.35896 -4.85606)
(2.10586e-26 -13.8875 29.965)
(-4.93423e-25 -17.8229 27.0377)
(-8.89321e-25 -13.0927 26.899)
(-1.54315e-24 -14.039 24.4735)
(-2.14087e-24 -11.92 23.5092)
(7.91892e-27 -11.4414 21.8723)
(4.14849e-24 -10.2954 20.6453)
(7.77727e-24 -9.53051 19.3266)
(1.01067e-23 -8.65837 18.0964)
(1.06639e-23 -7.82339 16.7572)
(7.84147e-24 -6.90602 15.2196)
(3.86082e-24 -5.98485 13.4394)
(1.40999e-23 -5.19663 11.6016)
(6.20697e-23 -4.67859 10.0042)
(1.45956e-22 -4.42751 8.7993)
(2.13203e-22 -4.3567 7.82555)
(1.86987e-22 -4.1508 6.53545)
(4.8185e-23 -3.31294 4.36009)
(-1.46526e-21 -1.27815 0.192381)