/*--------------------------------*- C++ -*----------------------------------*\
| =========                 |                                                 |
| \\      /  F ield         | OpenFOAM: The Open Source CFD Toolbox           |
|  \\    /   O peration     | Version:  4.1                                   |
|   \\  /    A nd           | Web:      www.OpenFOAM.org                      |
|    \\/     M anipulation  |                                                 |
\*---------------------------------------------------------------------------*/
FoamFile
{
    version     2.0;
    format      ascii;
    class       volScalarField;
    location    "9";
    object      p;
}
// * * * * * * * * * * * * * * * * * * * * * * * * * * * * * * * * * * * * * //

dimensions      [0 2 -2 0 0 0 0];

internalField   nonuniform List<scalar> 
1280
(
-0.038789
-0.218232
0.0494031
-0.34315
-0.198189
-0.356118
-0.874885
-1.02931
-1.24949
-1.45034
-2.59157
-2.28603
-3.04854
-5.0236
-4.55658
-6.29038
-9.28831
-9.55964
-11.2539
-20.925
-14.2553
1.48715
17.6403
21.7104
23.4048
28.4386
-3.11813
8.85407
8.74782
8.38961
7.72062
6.8426
5.9271
4.58236
3.51371
1.6867
0.68794
-1.58909
-2.6627
-2.80058
-23.229
-11.3176
-5.35929
-0.675598
9.14179
10.7289
10.2712
10.7166
10.0395
10.4981
10.5115
10.0596
10.7136
10.2734
10.7205
9.16583
-0.729986
-5.56962
-11.5121
-22.266
-3.8707
-4.11407
-3.1026
-0.846269
0.184767
2.01079
3.07836
4.40746
5.30896
6.16554
6.82395
7.16929
7.19937
-4.87232
27.0216
21.948
20.1164
16.1115
0.18447
-15.5109
-22.2088
-12.4365
-10.8575
-10.4799
-7.38897
-5.5776
-5.93985
-3.87034
-3.09675
-3.30457
-2.06013
-1.82982
-1.55458
-1.31439
-0.698469
-0.511805
-0.589026
-0.0960095
-0.355186
-0.0798297
0.0491382
0.385344
-0.470102
-0.420282
-0.285397
-0.320709
0.55465
0.568629
0.510404
0.28043
-0.0779232
-0.305402
-0.406323
0.0831819
0.24161
-0.0544052
-0.202336
-0.368263
-0.313735
0.646162
3.09229
1.07929
-0.204989
-1.0408
-1.02444
0.998723
1.32468
1.43886
1.23108
0.665296
-0.238996
-0.733015
0.74501
0.805271
-0.0769034
-0.339801
-0.46639
-0.141272
1.17884
4.65126
2.47512
-0.803707
-2.11211
-1.43584
1.25735
1.77078
1.77203
1.49709
0.751701
-1.02291
-1.70975
1.02739
1.16517
-0.281032
-0.835532
-1.13576
-0.645217
1.87792
6.59039
4.29038
-0.591138
-2.87844
-1.92605
1.34312
2.09823
2.15241
2.25512
1.00379
-2.17948
-2.66653
1.51233
1.60242
-0.589734
-1.11972
-1.2064
-0.420233
2.6901
8.00462
5.63873
-0.373097
-3.77377
-2.26113
1.29785
2.35342
2.80584
3.39812
1.2152
-5.00555
-5.06877
2.00267
2.46411
-1.14034
-2.3044
-2.53348
-1.2839
3.57017
8.5677
6.69744
0.16731
-4.52674
-2.4302
1.18293
2.79522
3.94777
5.26549
2.08857
-9.29664
-8.58564
2.161
2.81834
-1.53349
-2.71628
-1.89753
-0.558189
4.38667
7.97728
6.91917
0.685295
-4.53232
-2.53205
1.28062
3.74025
5.20399
6.44613
2.7556
-11.5339
-9.85168
2.12445
2.2106
-3.00798
-4.47591
-4.65595
-2.15868
5.11343
6.59031
6.55867
0.840637
-4.04375
-2.53752
1.4354
4.3735
6.00544
7.28464
2.70312
-13.3243
-10.9977
1.64992
2.38489
-3.70675
-4.12303
1.29582
0.193103
5.6883
4.97769
5.77161
0.279933
-3.8974
-2.52626
1.86342
5.16336
6.54624
7.41187
4.02602
-10.3039
-10.0236
1.4693
3.87937
-1.41442
-1.3959
14.5505
20.1366
6.1026
3.6559
4.91721
-1.08893
-4.83774
-3.41297
1.48995
5.44503
7.40304
8.43929
5.60139
-8.06616
-9.5702
-0.582414
4.74892
1.76043
5.25687
28.3135
15.169
6.15485
2.99356
4.16202
-2.84652
-5.98256
-3.914
1.35199
5.60913
7.97844
9.34072
6.49158
-8.70364
-11.5487
-3.37748
4.41988
2.31048
5.18246
28.0862
15.1322
5.80114
3.08937
3.5778
-4.07178
-6.42875
-3.64227
1.3158
5.56805
8.56675
10.4432
6.50796
-13.1927
-16.2916
-6.00096
7.0703
3.31357
1.16571
15.0291
20.4926
5.1567
3.83864
3.46956
-4.11636
-5.94248
-2.84005
1.10788
4.73424
8.18872
10.9904
6.53805
-17.2659
-17.9537
-8.1086
4.38837
3.46039
0.544482
1.31694
0.880928
4.12225
4.3738
3.71118
-3.51405
-4.99877
-1.85959
1.07859
3.61096
6.67709
9.42661
5.93476
-19.5132
-19.1428
-7.83189
3.44992
2.79217
-0.778082
-3.82944
-1.07432
2.89429
4.08392
3.83872
-2.20049
-3.27304
-0.625981
1.47376
3.12882
5.08508
6.15135
4.43511
-21.2309
-21.362
-8.43468
2.81481
2.85256
1.09951
-0.269198
0.59189
1.82627
3.29345
3.33116
-0.936684
-1.57923
0.354535
1.72194
2.97774
3.99985
3.28629
3.09899
-20.2939
-21.8389
-8.50462
2.33039
1.99534
0.343843
-1.55906
-0.336042
1.09986
2.3343
2.50277
-0.256633
-0.78821
0.57188
1.59149
2.70778
3.49558
2.47491
2.41211
-16.1229
-19.528
-7.96028
1.66233
1.48534
0.776071
-0.295715
0.428047
0.630009
1.46624
1.56094
-0.147064
-0.402643
0.56508
1.27404
2.14764
2.73065
1.8132
1.42539
-9.85943
-13.6439
-5.69633
1.11492
0.905699
0.408505
-0.572056
-0.0501102
0.336744
0.877846
1.0152
0.126019
-0.0722122
0.474747
0.968449
1.64134
2.07408
1.34216
0.777464
-3.29304
-6.42379
-3.35576
0.614826
0.568858
0.378849
-0.0722885
0.267952
0.0767298
0.227568
0.192148
-0.206221
-0.257153
-0.028979
0.181655
0.450403
0.544943
0.105144
-0.399712
-1.17832
-2.06888
-1.34581
0.417429
0.305702
0.0981443
-0.167957
-0.0998251
117.255
115.875
114.4
115.43
112.127
110.726
107.843
105.77
103.065
101.062
99.1108
97.4315
96.1338
94.7775
94.1269
92.9003
93.0113
91.5738
92.7199
91.2858
68.4583
68.5074
68.9403
70.3344
69.3679
69.8972
69.1989
69.4666
69.0434
69.139
69.0428
69.0542
69.2938
69.2213
69.8316
69.5899
70.6915
70.2704
72.0181
72.1024
84.7429
83.9506
85.1458
85.9779
85.3186
85.3306
84.491
84.1514
83.4332
83.0051
82.5574
82.096
81.9589
81.399
81.6011
80.8178
81.4794
80.4587
81.7597
81.3935
67.0298
67.7453
70.1265
71.9921
72.4081
73.0666
72.9833
72.9976
72.8268
72.8041
72.8417
72.7631
73.0134
72.7522
73.255
72.7325
73.5856
72.9161
74.2488
74.4877
60.4001
61.9287
64.9161
67.0592
68.669
69.74
70.436
70.9741
71.2507
71.6861
72.1354
72.4503
73.0238
73.1029
73.8447
73.6681
74.6752
74.4795
75.9298
76.6745
31.6546
33.3829
36.1306
37.5077
40.5904
41.267
42.5618
44.0483
44.8065
46.0874
47.1986
48.4298
49.881
51.1396
52.9072
54.1644
56.1723
57.5886
59.8236
62.0691
5.98665
5.36402
6.06758
5.03566
8.02367
5.52701
5.29537
6.55199
6.20035
7.27727
7.74452
8.98092
10.4379
12.2926
14.7474
17.3493
20.5317
23.6801
26.972
29.7799
10.5731
8.71807
6.91124
4.79352
7.29117
1.43511
-0.10005
0.173351
-1.84597
-1.93104
-3.42783
-3.6562
-3.98611
-3.4457
-2.28721
-0.423882
2.29846
5.20586
8.76126
9.3864
35.6631
35.3478
32.3423
31.1005
35.0418
28.643
27.263
27.9791
25.3299
25.033
22.964
21.8295
20.0609
18.6579
17.2279
16.2187
15.6839
15.8897
19.3085
18.9488
48.8521
50.4139
46.1141
45.7794
52.1296
45.0566
42.819
44.7166
41.678
40.7946
38.6057
36.6177
34.117
31.2317
27.8689
24.2092
21.1211
17.8989
19.2775
18.821
60.8068
63.0405
58.0119
57.6873
64.2637
58.8753
57.0324
59.4224
57.7742
56.4872
55.0824
53.2564
51.6149
49.188
46.7996
42.9286
40.341
36.727
37.3752
36.0512
68.2216
70.8183
72.1452
72.4464
74.8645
65.7225
69.3665
67.3561
69.3146
67.9162
68.7704
67.745
67.802
66.7384
66.2405
65.207
65.1781
64.9822
65.8899
64.7534
38.6881
41.0685
43.9227
43.5024
48.1786
47.4747
52.4052
53.1198
56.3487
57.5612
59.9923
61.5683
63.4326
64.9821
66.5109
67.8511
69.215
70.9929
72.2504
74.4687
15.0737
14.1422
15.3623
12.7334
14.7793
11.2047
14.7318
13.786
14.9602
14.1686
14.9536
15.7827
17.2124
18.7401
20.8199
23.7406
26.0083
28.8861
31.0747
34.0168
35.3433
33.6941
34.8111
31.9737
33.3287
30.7971
31.2997
29.5611
29.1326
27.8524
26.9377
25.8384
24.8496
23.855
23.1475
23.1764
23.3067
22.4345
21.4037
22.2056
40.8821
40.0319
42.2058
39.4203
42.2052
40.6344
42.2672
42.132
43.0739
43.5725
44.3314
45.0003
45.6864
46.3177
46.8692
47.206
47.2715
47.159
46.4965
45.657
46.1136
43.9814
46.6584
41.2563
42.6084
39.268
38.7522
36.9669
36.0841
35.1266
34.5513
34.1803
34.0716
34.2145
34.5225
35.0385
35.6929
36.7092
38.1672
39.3569
36.0435
30.1277
38.1633
31.409
33.4942
30.2735
29.1245
26.7462
24.6733
22.362
20.0966
17.8236
15.6165
13.5126
11.6277
10.2767
9.70272
10.6575
11.9001
13.8303
53.7045
31.5068
39.5134
28.2452
25.3665
18.5591
13.48
8.09816
3.45282
-0.666658
-4.01666
-6.5487
-8.17294
-8.80479
-8.3342
-6.86597
-4.35323
-0.564587
2.35035
4.49155
746.42
663.6
614.455
557.93
508.755
461.276
417.159
375.505
336.342
299.393
264.505
231.485
200.119
170.339
142.215
114.955
88.9802
68.8894
45.5122
7.85896
712.596
629.66
580.456
523.86
474.634
427.111
382.962
341.288
302.115
265.168
230.295
197.303
165.978
136.253
108.201
81.05
55.3003
35.5928
12.4939
-25.0979
17.6011
-4.70155
3.2378
-8.12395
-11.1008
-18.0137
-23.2067
-28.7091
-33.4815
-37.7337
-41.2207
-43.8922
-45.6548
-46.4364
-46.1466
-44.7813
-42.337
-39.1006
-36.427
-34.0472
-0.440695
-6.35647
1.69254
-5.03346
-2.96003
-6.16043
-7.31361
-9.68398
-11.7571
-14.0721
-16.3503
-18.6493
-20.9032
-23.0869
-25.0971
-26.5631
-27.2124
-26.1898
-24.9178
-22.3874
11.1043
9.28376
12.0775
6.77988
8.45368
5.1899
4.91485
3.30505
2.61241
1.8584
1.47174
1.27754
1.28496
1.44818
1.63264
1.85249
2.27327
3.52343
5.52617
8.30908
11.9574
11.8852
14.4516
12.2001
15.7552
14.7781
17.3441
18.1222
20.1702
21.747
23.5935
25.3537
27.0511
28.5462
30.1427
30.9504
31.095
30.9198
31.0936
30.8572
14.3634
11.0079
11.4775
7.45958
8.24374
4.47748
4.86787
2.26184
0.825522
-1.95869
-4.14661
-6.83577
-10.5767
-9.64695
-9.43972
-10.1626
-10.2672
-10.1828
-10.381
-8.65514
-63.2213
-67.355
-68.0494
-73.4072
-75.0637
-81.0984
-84.2519
-90.0178
-95.0701
-100.715
-107.374
-111.308
-120.983
-88.8339
-9.90656
-12.8496
-11.3886
-9.02136
-7.87955
-2.6799
-30.9408
-28.2337
-24.1318
-23.226
-18.1679
-16.1979
-11.385
-8.08422
-3.63268
1.15854
6.08437
12.2028
18.6337
25.1493
31.096
31.7412
36.4577
42.968
38.9351
45.8001
31.1426
36.3423
39.5804
41.2217
45.519
47.1095
50.7019
52.7866
55.7479
58.1834
60.8332
63.0874
65.3666
67.5583
70.0364
72.2824
75.2249
79.011
78.1231
81.0357
58.8248
62.92
64.0243
65.2214
67.0287
67.7726
69.2328
69.901
70.9735
71.6124
72.4781
72.9543
73.3399
73.423
73.0909
72.7138
72.2077
72.4976
72.9728
74.3416
68.1384
70.8402
70.9517
71.9
72.5162
72.5555
73.0271
72.8422
72.8903
72.4653
72.0721
71.2119
70.1184
68.4746
66.3398
63.4168
60.759
57.4709
57.7154
57.3371
67.2442
67.6398
66.7696
66.5788
65.6759
64.4178
63.3437
61.8222
60.4516
58.6947
56.8759
54.6215
52.0311
48.8751
45.3106
41.5102
37.9926
34.8329
36.5591
35.4831
41.5715
39.2845
37.8103
36.4072
34.3943
32.649
31.0539
29.1997
27.6407
26.0531
24.8459
23.7506
23.0286
22.5164
22.5152
22.8954
23.9602
25.2579
28.9474
28.7926
18.0148
16.0328
15.51
14.8985
13.7841
13.2477
12.804
12.0775
11.5306
10.933
10.7556
10.7666
11.3576
12.29
14.0749
16.2138
19.2602
22.3094
25.9102
27.0553
24.0254
24.8154
26.0929
27.645
28.0528
28.7229
29.2192
29.6035
30.1864
30.7988
31.8023
32.9127
34.5311
36.163
38.4315
40.4086
43.0535
45.1974
47.9417
50.3468
52.586
54.303
57.0096
59.77
60.6317
61.6225
62.1169
62.8012
63.4797
64.1661
65.0094
65.6698
66.642
67.1768
68.3187
68.6511
69.9837
70.2837
71.9401
73.1759
61.8899
63.037
65.6104
68.2452
68.4071
69.1216
68.8002
69.113
69.0911
69.3091
69.5346
69.6198
70.0089
69.8798
70.4593
70.068
70.9199
70.4084
71.6779
72.1157
81.3429
80.8679
82.1047
83.6469
82.5635
82.882
81.7313
81.5919
80.7979
80.472
80.0335
79.6138
79.4881
78.9443
79.1313
78.3705
78.9639
77.9896
79.1631
78.9406
66.2713
66.4883
66.7814
68.6237
67.2317
67.9828
67.0016
67.334
66.8039
66.9121
66.7733
66.7723
66.9808
66.8849
67.4575
67.2022
68.2391
67.8175
69.4603
69.6895
114.91
113.606
112.014
113.219
109.759
108.407
105.4
103.275
100.51
98.4721
96.4792
94.7693
93.433
92.0514
91.3606
90.1287
90.1914
88.7758
89.8364
88.5168
)
;

boundaryField
{
    outletWall
    {
        type            fixedValue;
        value           uniform 0;
    }
    fineWalls
    {
        type            zeroGradient;
    }
    fineFrontAndBack
    {
        type            zeroGradient;
    }
    fineplugLeft
    {
        type            cyclicAMI;
        value           nonuniform List<scalar> 
20
(
72.4686
73.6434
72.9412
74.5466
74.6576
76.0043
76.7385
78.0925
79.3137
80.8328
82.5274
84.2015
86.3867
95.2259
94.2685
94.3825
96.6863
95.0482
92.9972
90.953
)
;
    }
    fineplugRight
    {
        type            cyclicAMI;
        value           nonuniform List<scalar> 
20
(
70.0393
71.0463
70.4002
71.9839
72.1399
73.4906
74.2568
75.6279
76.8773
78.4164
80.1425
81.8422
84.0602
92.8616
92.1303
92.1967
94.5987
92.8338
90.9215
88.8255
)
;
    }
    inletOutletLeft
    {
        type            cyclicAMI;
        value           nonuniform List<scalar> 
20
(
72.4686
73.6434
72.9412
74.5466
74.6576
76.0043
76.7385
78.0925
79.3137
80.8328
82.5274
84.2015
86.3867
95.2259
94.2685
94.3825
96.6863
95.0482
92.9972
90.953
)
;
    }
    inletLeft
    {
        type            zeroGradient;
    }
    inletWallsLeft
    {
        type            zeroGradient;
    }
    inletFacesLeft
    {
        type            zeroGradient;
    }
    inletOutletRight
    {
        type            cyclicAMI;
        value           nonuniform List<scalar> 
20
(
70.0393
71.0463
70.4002
71.9839
72.1399
73.4906
74.2568
75.6279
76.8773
78.4164
80.1425
81.8422
84.0602
92.8616
92.1303
92.1967
94.5987
92.8338
90.9215
88.8255
)
;
    }
    inletRight
    {
        type            zeroGradient;
    }
    inletWallsRight
    {
        type            zeroGradient;
    }
    inletFacesRight
    {
        type            zeroGradient;
    }
}


// ************************************************************************* //
