/*--------------------------------*- C++ -*----------------------------------*\
| =========                 |                                                 |
| \\      /  F ield         | OpenFOAM: The Open Source CFD Toolbox           |
|  \\    /   O peration     | Version:  4.1                                   |
|   \\  /    A nd           | Web:      www.OpenFOAM.org                      |
|    \\/     M anipulation  |                                                 |
\*---------------------------------------------------------------------------*/
FoamFile
{
    version     2.0;
    format      ascii;
    class       surfaceScalarField;
    location    "9";
    object      phi;
}
// * * * * * * * * * * * * * * * * * * * * * * * * * * * * * * * * * * * * * //

dimensions      [0 3 -1 0 0 0 0];

internalField   nonuniform List<scalar> 
2360
(
843.655
1965.56
-1121.91
1965.57
1965.56
3102.15
-1136.59
3102.15
3102.15
3102.15
4447
-1344.85
4447
4447
6102.3
-1655.3
6102.3
6102.3
8177.59
-2075.29
8177.59
8177.59
11683.1
-3505.53
11683.1
11683.1
12443.1
14015.1
15574.2
17054.7
18409.7
19672.1
16088.8
4778.44
17215.4
18272.9
19267.5
20200.4
21076.1
21894.9
22661.5
23374.9
24042.7
24660.2
25235.3
25789.1
26404.7
11419.6
14985.1
11419.6
11419.6
11419.6
-229.252
11648.8
-229.251
-229.253
-229.252
-19.2787
-209.975
-19.2783
-19.2803
232.019
-251.298
232.016
232.017
232.015
-11445.7
11677.7
-11445.7
-11445.7
-11445.7
-26431.3
14985.6
-25808.4
-25256.8
-24689.8
-24080.2
-23418
-22708
-21943.3
-21125.4
-20249.8
-19316.2
-18320.3
-17260.7
-16130.8
-19720.9
4790.21
-18451.9
-17091.9
-15606.9
-14053.3
-12482.5
-11721.5
-11721.5
-11721.5
-8280.89
-3440.59
-8280.89
-8280.89
-6193.22
-2087.67
-6193.22
-6193.22
-4567.83
-1625.39
-4567.83
-4567.83
-3256.34
-1311.5
-3256.34
-3256.34
-3256.34
-2178.95
-1077.39
-2178.95
-2178.95
-1078.91
-1100.04
-4838.93
5999.51
-4143.54
4195.34
-3099.51
-4340.66
-2332.07
-6575.44
-2087.45
-100.183
-2296.11
3983.05
-2443.74
2911.16
-2361.29
2596.9
-2072.12
3318.19
-1632.26
3187.31
-1087.73
2267.73
-519.032
1455.61
-143.565
2308.8
169.944
2709.96
481.401
1151.63
687.282
976.701
877.39
1420.18
988.614
3158.46
3699.83
-4986.83
5863.04
-4263.47
3471.98
-3414.38
-5189.74
-2843.83
-7145.99
-2484.12
-459.898
-2632.71
4131.64
-2810.9
3089.35
-2670.72
2456.71
-2278.2
2925.67
-1719.58
2628.69
-987.435
1535.58
-240.712
708.891
-23.4489
2091.54
157.019
2529.49
583.347
725.3
795.923
764.125
908.852
1307.25
971.35
3095.96
3593.79
-5218.91
5725.13
-4574.82
2827.88
-4048.14
-5716.43
-3809.66
-7384.46
-3293.42
-976.14
-3210.73
4048.95
-3459.99
3338.61
-3358.12
2354.84
-2886.55
2454.1
-2167.22
1909.36
-1103.37
471.732
46.7695
-441.246
278.64
1859.67
235.238
2572.89
683.908
276.63
998.189
449.844
1084.82
1220.61
1063.76
3117.02
3346.06
-5637.71
5569.18
-5113.82
2304
-4976.52
-5853.73
-4999.04
-7361.94
-4261.54
-1713.64
-3833.33
3620.73
-3996.98
3502.26
-3859.49
2217.36
-3217.59
1812.19
-2269.88
961.653
-820.544
-977.606
758.655
-2020.45
1006.45
1611.87
709.621
2869.72
1029.79
-43.5446
1210.62
269.015
1137.97
1293.26
1164.35
3090.64
2885.02
-6273.35
5346.06
-5861.77
1892.42
-6140.77
-5574.74
-6469.53
-7033.18
-5487.48
-2695.68
-4402.69
2535.94
-4120.56
3220.14
-3764.8
1861.59
-2851.94
899.332
-1521.46
-368.826
272.66
-2771.72
1557.85
-3305.63
1344.42
1825.3
1004.06
3210.08
1382.43
-421.92
1652.15
-0.708363
1561.95
1383.47
1458.21
3194.39
2255.55
-7090.67
5015.91
-6803.33
1605.08
-7489.28
-4888.79
-8237.41
-6285.04
-7315.02
-3618.07
-5488.68
709.598
-4426.88
2158.33
-3841.91
1276.62
-2927.96
-14.6176
-1462.61
-1834.17
33.727
-4268.06
7.7635
-3279.67
-635.447
2468.51
-462.705
3037.34
185.973
-1070.6
894.908
-709.643
965.15
1313.22
1674.45
2485.09
489.409
-7947.71
4548.15
-7810.46
1467.83
-8919.65
-3779.6
-10257
-4947.67
-10053
-3822.07
-8153.6
-1189.82
-6316.72
321.453
-5223.29
183.196
-4259.16
-978.751
-3289.11
-2804.22
-3233.26
-4323.91
-4072.18
-2440.75
-3857.98
2254.31
-2599.33
1778.69
-1424.16
-2245.77
-113.736
-2020.06
1324.93
-125.441
2262.77
1547.24
7542.39
-8678.6
3917.81
-8713.1
1502.33
-10241.7
-2251.02
-12162.2
-3027.2
-12882.9
-3101.28
-11647.3
-2425.48
-9446.54
-1879.29
-7615.63
-1647.72
-6773.07
-1821.31
-7000.41
-2576.89
-7832.44
-3491.88
-7886.62
-2386.57
-6506.79
874.486
-5559.56
831.453
-5889
-1916.33
-6006.19
-1902.87
-6470.7
339.072
-9479.13
4555.67
13048.8
-9144.87
3107.1
-9308.75
1666.22
-11150.5
-409.309
-13385.3
-792.352
-14596.8
-1889.76
-14006.8
-3015.47
-12135.7
-3750.46
-10240.9
-3542.53
-9471.41
-2590.75
-10175.3
-1872.97
-11861.6
-1805.57
-13512.6
-735.596
-13951.7
1313.53
-14225.7
1105.51
-14977.2
-1164.86
-15548.8
-1331.26
-15643.8
434.027
-14989.3
3901.23
9737.2
-9063.28
2059.58
-9209.15
1812.09
-11096.8
1478.3
-13050.1
1160.97
-13775.1
-1164.75
-12990.5
-3800.06
-11413.3
-5327.63
-9868.5
-5087.37
-9200.37
-3258.88
-10286.8
-786.543
-12973.2
880.835
-15703.5
1994.75
-16363.6
1973.56
-15463.9
205.867
-14711.2
-1917.54
-14529.3
-1513.24
-13642.2
-453.047
-9626.18
-114.771
-140.284
-8302.12
766.356
-8132.98
1642.94
-9514.7
2860.02
-10605.9
2252.18
-10422
-1348.62
-9401.28
-4820.81
-8636.39
-6092.53
-8435.28
-5288.48
-8716.17
-2978
-10054.9
552.2
-12902.6
3728.55
-15977.6
5069.75
-16762.4
2758.35
-15818.6
-737.953
-15120.1
-2616.02
-14871.2
-1762.21
-13730.1
-1594.09
-9652.82
-4192.06
-10003.1
-8242.81
-709.121
-7383.4
783.537
-7766.65
3243.26
-7845.28
2330.81
-6988.31
-2205.58
-6049.52
-5759.59
-6019.81
-6122.25
-6881.92
-4426.36
-8175.86
-1684.06
-9664.29
2040.63
-11871.6
5935.87
-14061.2
7259.38
-13563.8
2260.93
-12090.2
-2211.53
-12776.6
-1929.68
-14693.5
154.723
-15399.3
-888.27
-14920.5
-4670.84
-13274.8
-8180.5
-2233.23
-6681.33
-715.626
-6224.81
2786.74
-5685.76
1791.76
-4702.35
-3188.99
-4199.92
-6262.03
-4532.62
-5789.54
-5282.97
-3676.01
-6477.03
-490.006
-8073.16
3636.76
-9886.9
7749.61
-10675.5
8048.02
-8282.85
-131.767
-4939.22
-5555.16
-3073.27
-3795.63
-4091.69
1173.15
-6204.21
1224.25
-9428.05
-1447
-7717.72
-7767.42
-3529.17
-5855.8
-2627.25
-4643.53
1574.47
-3887.99
1036.22
-3320.33
-3756.65
-3618.35
-5964.01
-4281.32
-5126.58
-4461.54
-3495.79
-4549.31
-402.235
-5414.58
4502.04
-7105.27
9440.3
-7787.2
8729.95
-6146.07
-1772.89
-4217.21
-7484.02
-1980.74
-6032.1
236.027
-1043.62
1805.67
-345.395
2489.95
-2131.28
-449.327
-7139.77
-4374.2
-5290.04
-4476.98
-3285.61
-429.955
-2297.71
48.3183
-2587.69
-3466.67
-3673.71
-4877.99
-4471.98
-4328.3
-4407.24
-3560.54
-3702.47
-1107.01
-3268.59
4068.16
-4162.51
10334.2
-4998.1
9565.54
-3790.35
-2980.65
-2548.05
-8726.32
-1580.51
-6999.64
19.2561
-2643.38
819.513
-1145.65
1763.6
-3075.36
-2191.25
-6310.21
-4810.78
-5085.44
-5701.76
-3114.57
-2400.82
-1973.44
-1092.82
-2637.94
-2802.16
-3776.59
-3739.34
-4335.69
-3769.21
-4365.28
-3530.95
-3726.11
-1746.18
-2454.39
2796.44
-1766.5
9646.33
-2217.95
10017
-1583.72
-3614.88
-814.908
-9495.13
-578.486
-7236.06
428.085
-3649.95
1081.86
-1799.43
1342.45
-3335.95
-2924.09
-5535.4
-5021.85
-4900.8
-6336.36
-3727.5
-3574.12
-2964.3
-1856.02
-3265.49
-2500.97
-3735.62
-3269.21
-3901.51
-3603.31
-3926.03
-3506.43
-3566.57
-2105.64
-2287.57
1517.44
-226.909
7585.67
560.217
9229.88
466.013
-3520.68
364.346
-9393.46
133.942
-7005.66
538.349
-4054.36
929.957
-2191.03
1184.59
-3590.58
-3394.8
-5052.49
-5118.54
-4752.62
-6636.23
-4105.04
-4221.71
-3580.68
-2380.38
-3556.43
-2525.22
-3597.3
-3228.34
-3496.72
-3703.88
-3316.87
-3686.28
-2961.67
-2460.84
-2043.01
598.781
224.246
5318.41
2054.32
7399.81
1886.39
-3352.75
1018.13
-8525.2
603.519
-6591.05
780.772
-4231.61
1052.7
-2462.96
1122.98
-3660.87
-3616.67
-4849.03
-5175.27
-4702.9
-6782.36
-4329.5
-4595.11
-3899.13
-2810.75
-3679.61
-2744.74
-3511.47
-3396.48
-3281.18
-3934.17
-2961.88
-4005.57
-2493.95
-2928.78
-1784.72
-110.447
-115.929
3649.62
1810.38
5473.49
1998.92
-3541.29
1192.82
-7719.1
868.591
-6266.82
883.172
-4246.2
1006.26
-2586.05
1054.23
-3708.84
-3699.02
-4773.9
-4690.19
-4460.32
-4078.87
-3739.73
-3460.2
-3182.56
-2844.79
-2349.75
-1640.51
-547.482
830.646
1439.73
1236.75
1027.13
946.33
1005.7
1052.25
114.074
-874.057
354.046
-1812.01
539.494
-1744.46
685.981
-1627.03
797.453
-1466.45
881.373
-1346.32
922.472
-1236.28
944.97
-1149.11
949.097
-1061.63
936.7
-982.115
906.487
-902.764
860.556
-829.733
797.881
-756.09
720.352
-689.05
625.092
-618.134
515.145
-557.88
385.949
-488.349
244.736
-433.82
112.704
-421.798
-502.901
47.8709
-921.924
58.7818
-1822.92
84.9354
-1770.61
82.7262
-1624.81
91.031
-1474.75
91.2177
-1346.5
98.6324
-1243.69
108.09
-1158.56
116.385
-1069.93
122.636
-988.363
125.025
-905.152
122.832
-827.538
113.664
-746.919
98.1705
-673.555
73.6716
-593.634
43.3658
-527.573
5.52805
-450.511
-30.8454
-397.446
-44.3114
-408.331
-547.212
-53.6115
-868.308
-53.7138
-1822.81
13.3856
-1837.71
23.0465
-1634.47
57.8611
-1509.57
95.7688
-1384.41
114.142
-1262.06
120.205
-1164.63
122.552
-1072.27
124.159
-989.967
125.725
-906.716
124.764
-826.574
119.939
-742.092
111.841
-665.455
100.725
-582.516
88.2545
-515.1
74.1061
-436.361
58.3533
-381.692
35.5606
-385.536
-511.652
6.2198
-874.524
23.6769
-1840.27
81.4356
-1895.46
83.543
-1636.58
90.8934
-1516.92
147.4
-1440.91
181.777
-1296.44
192.73
-1175.58
197.342
-1076.88
202.552
-995.176
207.478
-911.64
207.513
-826.607
200.705
-735.284
187.496
-652.244
171.649
-566.668
155.422
-498.872
143.321
-424.259
130.094
-368.464
100.734
-356.174
-410.918
148.625
-1023.14
222.256
-1913.89
262.209
-1935.41
258.82
-1633.18
270.297
-1528.39
354.326
-1524.94
432.991
-1375.1
478.655
-1221.24
504.657
-1102.88
520.358
-1010.87
525.387
-916.667
516.646
-817.863
493.744
-712.38
456.293
-614.791
410.786
-521.159
359.685
-447.769
314.193
-378.766
266.927
-321.198
189.8
-279.045
-221.117
289.966
-1313.11
409.086
-2033.01
429.843
-1956.17
413.751
-1617.09
477.361
-1592
578.751
-1626.33
670.026
-1466.38
749.665
-1300.88
806.294
-1159.51
837.458
-1042.04
839.719
-918.927
817.81
-795.954
775.979
-670.549
715.307
-554.118
640.275
-446.126
551.343
-358.837
458.599
-286.022
358.364
-220.963
230.18
-150.86
9.06298
268.8
-1581.91
340.883
-2105.1
340.934
-1956.22
324.235
-1600.39
422.793
-1690.56
507.651
-1711.19
540.368
-1499.1
606.316
-1366.82
647.993
-1201.18
649.984
-1044.03
614.272
-883.214
561.498
-743.179
499.382
-608.431
431.451
-486.186
358.111
-372.785
277.515
-278.24
191.23
-199.737
101.355
-131.086
13.9552
-63.4589
23.0182
82.9044
-1664.81
72.5988
-2094.79
54.5788
-1938.2
30.9188
-1576.73
55.5592
-1715.2
50.7383
-1706.36
-17.5465
-1430.81
-45.5488
-1338.82
-107.563
-1139.17
-200.337
-951.253
-305.742
-777.809
-407.767
-641.154
-502.07
-514.128
-588.534
-399.722
-667.038
-294.281
-734.67
-210.607
-765.816
-168.59
-683.907
-212.995
-403.693
-343.671
-380.675
-59.1963
-1605.61
-92.3495
-2061.63
-115.086
-1915.45
-153.79
-1538.02
-226.553
-1642.43
-291.101
-1641.81
-396.224
-1325.68
-498.189
-1236.86
-611.103
-1026.25
-725.929
-836.424
-836.017
-667.719
-948.296
-528.874
-1056.42
-406.005
-1156.9
-299.242
-1236.43
-214.741
-1266.07
-180.969
-1181.22
-253.438
-897.125
-497.092
-414.082
-826.712
-794.757
-44.2756
-1561.33
-63.0139
-2042.89
-84.7515
-1893.72
-88.1132
-1534.66
-159.498
-1571.05
-213.661
-1587.65
-277.84
-1261.51
-356.177
-1158.52
-394.103
-988.327
-413.021
-817.505
-422.949
-657.791
-445.626
-506.196
-477.297
-374.334
-511.348
-265.19
-523.597
-202.492
-477.108
-227.458
-349.125
-381.421
-166.684
-679.533
-51.6254
-941.77
-846.383
23.1197
-1584.45
11.29
-2031.06
-36.2461
-1846.18
-0.434638
-1570.47
-28.4383
-1543.04
-105.627
-1510.46
-113.181
-1253.95
-142.323
-1129.37
-121.438
-1009.21
-75.6327
-863.309
-4.6886
-728.735
74.46
-585.344
156.063
-455.938
236.196
-345.322
323.758
-290.054
427.935
-331.635
503.274
-456.76
455.014
-631.275
229.479
-716.236
-616.904
97.048
-1681.5
73.2059
-2007.22
34.5807
-1807.55
86.5185
-1622.41
83.1601
-1539.68
-8.41647
-1418.88
3.28065
-1265.65
17.2674
-1143.36
65.27
-1057.22
145.149
-943.188
249.287
-832.874
377.24
-713.298
520.596
-599.296
671.165
-495.892
808.487
-427.379
892.492
-415.642
865.71
-429.979
668.336
-433.903
348.32
-396.223
-268.584
172.03
-1853.53
134.241
-1969.43
151.889
-1825.2
187.176
-1657.69
217.169
-1569.68
227.994
-1429.71
284.674
-1322.33
361.432
-1220.12
453.715
-1149.5
565.058
-1054.53
683.121
-950.937
806.347
-836.524
927.648
-720.597
1037.62
-605.859
1109.12
-498.887
1097.26
-403.781
976.573
-309.293
742.017
-199.347
428.801
-83.0094
160.216
130.158
-1983.69
70.0463
-1909.32
84.2638
-1839.42
96.2409
-1669.67
134.302
-1607.74
182.746
-1478.15
250.945
-1390.53
321.113
-1290.29
387.105
-1215.49
452.265
-1119.69
518.557
-1017.23
583.974
-901.943
643.252
-779.875
680.011
-642.62
673.562
-492.439
619.826
-350.046
515.136
-204.603
297.322
18.4652
56.634
157.675
216.85
9.58858
-1993.28
-60.5376
-1839.2
-90.9032
-1809.06
-130.536
-1630.04
-164.718
-1573.56
-205.516
-1437.36
-231.423
-1364.63
-260.573
-1261.14
-297.793
-1178.28
-332.325
-1085.16
-356.351
-993.207
-363.581
-894.716
-354.777
-788.682
-338.423
-658.976
-333.945
-496.918
-359.727
-324.264
-397.734
-166.597
-381.44
2.16967
-373.721
149.953
-156.87
-1.3232
-1991.96
-20.6512
-1819.87
-32.2516
-1797.46
-50.3956
-1611.9
-68.4857
-1555.47
-86.6135
-1419.23
-114.321
-1336.92
-143.429
-1232.04
-176.867
-1144.84
-208.098
-1053.94
-233.843
-967.464
-249.281
-879.282
-251.079
-786.887
-230.327
-679.732
-183.341
-543.908
-134.202
-373.407
-104.222
-196.584
-18.0587
-84.0036
68.6547
63.2294
-88.2158
3.14468
-1995.11
-14.3831
-1802.35
-17.7855
-1794.06
-7.89155
-1621.8
0.393615
-1563.76
25.815
-1444.66
52.3022
-1363.41
88.3296
-1268.07
126.831
-1183.35
170.573
-1097.68
218.211
-1015.11
270.739
-931.812
329.223
-845.374
397.204
-747.714
476.625
-623.332
550.336
-447.121
559.009
-205.261
405.791
69.2112
330.379
138.636
242.163
-134.124
-1860.98
-288.813
-1647.66
-409.939
-1672.93
-487.199
-1544.54
-554.722
-1496.24
-587.476
-1411.9
-605.241
-1345.65
-599.712
-1273.6
-577.349
-1205.71
-537.576
-1137.46
-482.454
-1070.23
-411.891
-1002.38
-326.567
-930.7
-229.142
-845.141
-126.895
-725.581
-29.5074
-544.511
56.2028
-290.977
83.6649
41.7425
27.8998
194.397
270.063
-210.404
-1650.58
-463.644
-1394.42
-729.669
-1406.91
-952.385
-1321.82
-1165.59
-1283.04
-1344.91
-1232.59
-1500.45
-1190.11
-1627.14
-1146.9
-1727.63
-1105.22
-1801.48
-1063.6
-1849.62
-1022.09
-1871.95
-980.051
-1866.55
-936.098
-1825.86
-885.837
-1731.57
-819.87
-1550.6
-725.479
-1250.55
-591.03
-795.12
-413.685
-368.703
-232.022
-98.64
-675.58
-1095
-1526.91
-1873.73
-2181.77
-2439.36
-2654.47
-2826.37
-2956.59
-3045.2
-3092.29
-3097.34
-3058.43
-2969.27
-2814.14
-2564.62
-2180.65
-1619.34
-876.36
-677.739
1652.74
-1099.18
1396.44
-1533.11
1408.92
-1881.99
1323.87
-2192.14
1285.15
-2451.94
1234.8
-2669.42
1192.48
-2843.9
1149.48
-2976.97
1108.07
-3068.75
1066.78
-3119.42
1025.67
-3128.57
984.151
-3094.47
940.898
-3010.75
891.285
-2860.54
824.781
-2612.1
726.566
-2222.12
585.02
-1649.44
402.315
-888.896
214.459
86.1035
-210.757
1863.49
-463.849
1649.53
-729.822
1674.89
-952.211
1546.26
-1164.92
1497.86
-1343.62
1413.5
-1498.43
1347.29
-1624.24
1275.28
-1723.62
1207.45
-1796.08
1139.24
-1842.51
1072.1
-1862.98
1004.62
-1856.09
934.011
-1815.31
850.503
-1723.98
733.444
-1549.66
552.249
-1265.4
300.754
-857.956
-5.12903
-422.34
-221.159
-336.236
-129.731
1993.22
-282.566
1802.37
-400.754
1793.08
-473.946
1619.45
-537.117
1561.03
-565.223
1441.6
-576.995
1359.06
-564.676
1262.96
-534.008
1176.78
-484.732
1089.96
-418.865
1006.23
-336.806
922.555
-239.889
837.092
-131.608
742.219
-20.9003
622.733
74.9271
456.419
132.317
243.358
139.425
-12.2449
52.9437
-134.683
-283.293
18.3785
1974.84
9.59046
1811.15
18.451
1784.22
41.8213
1596.08
64.3451
1538.51
106.104
1399.84
150.011
1315.15
203.841
1209.13
261.141
1119.48
325.166
1025.93
396.177
935.216
478.761
839.97
577.61
738.241
694.039
625.789
823.557
493.214
929.654
350.32
953.061
219.949
771.13
169.684
429.047
207.398
145.754
-4.79622
1979.64
-22.8489
1829.21
-37.3525
1798.72
-66.4193
1625.15
-96.7046
1568.79
-142.814
1445.95
-203.188
1375.52
-266.26
1272.2
-332.851
1186.07
-400.815
1093.9
-464.428
998.827
-524.389
899.93
-575.381
789.231
-543.377
593.784
-336.691
286.524
-113.147
126.77
46.9683
59.8225
101.64
115.003
128.084
180.947
273.838
-61.5083
2041.15
-178.992
1946.69
-266.347
1886.08
-370.732
1729.53
-466.022
1664.08
-569.769
1549.7
-678.61
1484.37
-796.21
1389.8
-919.409
1309.27
-1036.74
1211.23
-1149.85
1111.93
-1236.79
986.873
-1256.04
808.476
-1277.58
615.33
-1422.81
431.75
-1477.66
181.62
-1396.42
-21.4178
-1097.47
-183.957
-629.908
-286.617
-356.07
142.548
1898.6
87.0541
2002.19
112.314
1860.82
150.627
1691.22
200.439
1614.27
254.48
1495.66
329.332
1409.52
417.946
1301.19
517.498
1209.72
628.429
1100.3
747.233
993.134
867.74
866.367
998.815
677.401
1031.07
583.073
791.883
670.937
489.654
483.845
184.022
284.204
-16.2877
16.3402
-139.133
-163.781
-495.203
259.379
1639.22
237.2
2024.37
264.788
1833.23
317.053
1638.96
392.539
1538.79
484.024
1404.18
597.129
1296.41
711.544
1186.78
819.358
1101.91
909.236
1010.43
983.112
919.258
1030.61
818.869
1037.9
670.11
1074.5
546.482
1216.54
528.89
1209.4
490.983
1082.23
411.379
762.454
336.109
357.773
240.895
-137.43
223.237
1415.99
233.348
2014.26
244.668
1821.91
281.063
1602.57
342.687
1477.16
415.457
1331.41
497.282
1214.59
581.958
1102.11
663.271
1020.59
730.808
942.894
785.831
864.235
828.047
776.653
829.323
668.833
841.069
534.736
922.162
447.795
977.825
435.318
930.854
458.348
734.074
532.888
429.211
545.754
291.781
101.255
1314.73
116.357
1999.16
130.897
1807.38
152.412
1581.06
187.002
1442.57
221.472
1296.94
256.579
1179.48
290.465
1068.22
324.609
986.451
363.157
904.348
412.06
815.332
477.948
710.767
553.569
593.211
629.938
458.368
711.656
366.077
797.08
349.894
828.233
427.195
721.537
639.583
423.403
843.888
715.183
-42.704
1357.44
-44.4515
2000.91
-31.897
1794.82
-37.2257
1586.39
-54.1969
1459.55
-80.3274
1323.07
-97.7978
1196.95
-110.522
1080.95
-107.487
983.417
-79.6456
876.508
-25.0869
760.774
50.6
635.081
135.203
508.609
205.908
387.663
273.735
298.25
354.244
269.386
420.522
360.916
411.354
648.752
246.689
1008.55
961.872
-153.001
1510.44
-182.637
2030.55
-196.514
1808.7
-257.312
1647.19
-361.583
1563.82
-484.629
1446.12
-591.341
1303.67
-674.109
1163.72
-726.055
1035.36
-752.074
902.529
-761.346
770.047
-765.579
639.316
-772.765
515.796
-786.895
401.794
-792.966
304.322
-766.644
243.065
-667.914
262.187
-451.96
432.798
-177.866
734.459
784.006
-72.8443
1583.29
-120.414
2078.12
-159.54
1847.83
-225.057
1712.7
-322.625
1661.39
-436.428
1559.93
-553.523
1420.76
-659.257
1269.45
-747.53
1123.64
-823.989
978.99
-894.818
840.876
-964.607
709.106
-1033.5
584.685
-1101.66
469.958
-1164.11
366.773
-1204.95
283.912
-1167.75
224.979
-948.433
213.486
-486.854
272.882
297.153
175.049
1408.24
188.995
2064.17
146.21
1890.62
119.848
1739.07
119.125
1662.11
131.841
1547.21
130.166
1422.44
106.501
1293.12
67.9139
1162.23
18.7976
1028.11
-35.4122
895.088
-92.3393
766.035
-149.566
641.914
-208.937
529.33
-269.349
427.186
-330.888
345.452
-383.519
277.611
-386.901
216.868
-262.83
148.812
34.3222
316.255
1091.99
426.885
1953.55
417.328
1900.17
410.575
1745.82
463.546
1609.14
550.194
1460.56
632.716
1339.92
689.691
1236.15
718.101
1133.82
720.078
1026.13
701.903
913.264
667.156
800.783
619.212
689.859
557.946
590.596
487.02
498.113
407.774
424.698
326.757
358.628
241.45
302.175
135.936
254.327
170.258
210.526
881.464
306.396
1857.68
332.586
1873.99
332.236
1746.17
386.544
1554.84
453.022
1394.09
515.604
1277.34
567.034
1184.72
604.285
1096.57
622.833
1007.58
623.151
912.947
605.13
818.806
571.366
723.623
523.202
638.761
467.484
553.831
406.772
485.411
350.868
414.531
291.979
361.065
201.834
344.472
372.092
35.3665
846.098
68.9132
1824.13
118.824
1824.07
136.646
1728.35
179.761
1511.72
205.443
1368.41
225.029
1257.75
243.294
1166.45
263.003
1076.86
277.638
992.951
284.358
906.227
280.182
822.982
266.406
737.4
245.048
660.119
221.336
577.544
197.273
509.475
178.675
433.13
158.539
381.201
119.442
383.57
491.535
-57.7567
903.855
-52.199
1818.57
9.8384
1762.04
56.5607
1681.63
95.846
1472.44
114.106
1350.15
125.975
1245.88
133.854
1158.57
142.368
1068.34
148.785
986.534
152.281
902.731
150.556
824.707
144.024
743.932
133.915
670.228
121.791
589.668
108.984
522.282
96.9236
445.191
82.7194
395.406
55.0916
411.198
546.626
35.2385
868.617
45.365
1808.45
69.9827
1737.42
103.69
1647.92
105.556
1470.57
101.367
1354.33
106.402
1240.85
113.673
1151.3
120.132
1061.89
124.949
981.716
125.863
901.818
122.197
828.372
111.991
754.139
96.0622
686.157
72.1381
613.592
43.3838
551.036
9.08982
479.485
-22.3877
426.884
-34.2174
423.029
512.409
107.636
345.257
529.061
691.962
802.535
887.873
928.618
950.063
952.322
938.181
906.385
859.13
795.321
716.779
620.423
509.25
379.162
239.026
110.405
)
;

boundaryField
{
    outletWall
    {
        type            calculated;
        value           nonuniform List<scalar> 
60
(
-1078.91
-3811.26
-3269.68
-1610.29
-1182.58
-1463.09
-3023.47
-2684.27
-2024.31
-2812.25
-3627.17
-3607.37
-2679.34
-2763.53
-3774.38
-144.444
5808.01
3296.63
-4890.73
-6120.96
4819.65
4905.77
5149.18
5746.47
6746.79
7984.8
9063.36
9704.61
9718.29
9595.34
10110.8
9955.58
9308.94
8415.47
7420.82
6496.47
5793.65
5356.82
5123.31
4960.37
-843.654
-3768.68
-3755.39
-2645.42
-4165.39
-6057.2
-7516.12
-4150.38
4095.36
2556.59
-819.687
-3423.82
-4343.35
-4211.81
-3676
-3083.89
-3192.2
-4824.97
-6866.07
-5221.03
)
;
    }
    fineWalls
    {
        type            calculated;
        value           uniform 0;
    }
    fineFrontAndBack
    {
        type            calculated;
        value           nonuniform List<scalar> 
960
(
-5.93782e-13
-1.56738e-12
4.08883e-14
3.87468e-14
3.1294e-13
-5.5687e-14
-5.4449e-14
-1.67871e-13
-1.10134e-13
-4.46517e-14
-2.84385e-14
-1.84971e-12
-6.6121e-13
-7.54673e-13
-7.05776e-12
-1.6559e-12
-1.68708e-12
-6.55315e-12
-1.24661e-12
-1.48355e-12
-1.87593e-13
-3.94616e-13
-4.00088e-13
-4.2717e-13
-4.33372e-13
-5.06403e-13
-7.72088e-12
-5.91399e-13
-6.09085e-13
-6.30477e-13
-6.54006e-13
-6.77067e-13
-7.0202e-13
-7.28321e-13
-7.61388e-13
-8.12658e-13
-8.522e-13
-9.75079e-13
-9.9788e-13
-1.0176e-12
-2.07536e-11
-2.44636e-12
-2.27448e-12
-2.10307e-12
-1.21753e-11
-8.91322e-12
-9.27506e-12
3.14948e-12
1.05324e-10
3.44755e-12
9.94583e-12
3.81077e-11
1.40062e-11
2.12896e-11
1.62767e-11
2.03424e-11
1.88171e-12
2.22013e-12
2.37676e-12
2.18815e-11
1.06413e-12
1.05189e-12
1.01315e-12
8.66437e-13
8.00651e-13
7.28358e-13
6.72771e-13
6.25359e-13
5.83627e-13
5.38068e-13
4.88119e-13
4.47263e-13
4.0769e-13
6.27724e-13
2.25168e-13
1.00183e-13
5.01811e-14
-2.03004e-14
-7.51295e-14
-3.33173e-13
-1.57201e-12
-1.82493e-12
-1.07962e-11
-1.78238e-12
-1.95982e-12
-9.25476e-12
-1.02549e-12
-1.20357e-12
-7.09195e-12
-8.8525e-13
-1.2545e-12
-5.93391e-12
-3.82159e-13
-4.03152e-13
-4.1486e-13
-3.70127e-12
-6.98167e-13
-9.62432e-13
-4.47252e-12
-3.58077e-13
1.11249e-09
8.19546e-10
3.45807e-10
5.2671e-11
-4.44409e-11
-1.09055e-10
-1.18757e-10
-1.04441e-10
-9.08123e-11
-7.54152e-11
-5.84747e-11
-4.99878e-11
-4.91293e-11
-4.80202e-11
-4.38049e-11
-3.6898e-11
-2.89377e-11
-1.83285e-11
-1.07465e-11
1.09102e-09
7.75956e-10
3.16798e-10
6.01331e-11
3.20199e-11
-9.22787e-11
-1.16859e-10
-9.51984e-11
-7.94042e-11
-6.64794e-11
-5.43226e-11
-4.7588e-11
-4.50729e-11
-4.52562e-11
-4.38115e-11
-3.82234e-11
-3.09438e-11
-1.9807e-11
-1.1681e-11
1.03821e-09
7.26426e-10
2.39194e-10
6.66615e-11
9.36929e-11
-5.06711e-11
-1.08866e-10
-8.29969e-11
-6.46952e-11
-5.80193e-11
-4.82442e-11
-3.80401e-11
-3.51941e-11
-4.07769e-11
-4.44765e-11
-3.7161e-11
-2.89528e-11
-1.99764e-11
-1.30433e-11
9.58304e-10
6.71586e-10
1.79618e-10
9.05249e-11
1.43897e-10
3.50958e-12
-8.29878e-11
-7.46113e-11
-7.15029e-11
-7.67858e-11
-6.04903e-11
-4.23169e-11
-2.37197e-11
-2.93799e-11
-3.54885e-11
-3.38998e-11
-2.86685e-11
-1.91962e-11
-1.3141e-11
8.70657e-10
5.91121e-10
1.34786e-10
1.03927e-10
1.62279e-10
7.12657e-11
-2.55648e-11
-5.45101e-11
-7.28937e-11
-7.4545e-11
-6.01461e-11
-2.34112e-11
-2.65163e-12
-8.94373e-12
-1.56028e-11
-2.08765e-11
-2.14838e-11
-1.77807e-11
-1.10029e-11
7.76883e-10
4.70079e-10
9.16028e-11
9.32993e-11
1.41427e-10
1.24368e-10
6.02542e-11
5.98501e-12
-2.14785e-11
-1.29576e-11
-1.76902e-12
1.17293e-11
1.75244e-11
9.56914e-12
-5.61585e-12
-1.32565e-11
-2.53668e-11
-2.15066e-11
-1.84327e-11
6.63436e-10
3.25275e-10
5.1788e-11
6.32996e-11
9.23473e-11
1.13272e-10
1.04773e-10
7.17421e-11
5.33374e-11
4.68925e-11
2.76049e-11
8.74451e-12
1.14664e-11
9.28105e-12
-2.85646e-14
9.81027e-12
5.12443e-12
-7.57361e-12
-2.11996e-11
5.3333e-10
1.97582e-10
1.99915e-11
2.50584e-11
3.87424e-11
5.96895e-11
7.42209e-11
7.03816e-11
5.08576e-11
2.25229e-11
4.5681e-12
4.93087e-12
9.84539e-12
1.46944e-11
1.66216e-11
1.32198e-11
8.4047e-12
8.26647e-12
1.62365e-11
3.86679e-10
1.0763e-10
-5.30701e-12
-1.35213e-11
-1.80853e-11
-1.59812e-11
-9.0884e-12
2.86412e-12
1.16796e-11
1.16857e-11
1.17826e-11
1.30152e-11
1.16472e-11
1.48189e-11
1.66509e-11
1.81593e-11
1.86441e-11
2.08732e-11
2.52584e-11
2.49911e-10
6.52333e-11
-1.50253e-11
-4.58822e-11
-6.83276e-11
-8.06774e-11
-7.39073e-11
-3.91857e-11
4.81305e-12
2.49765e-11
2.26632e-11
2.08629e-11
1.75828e-11
1.07936e-11
1.15289e-11
2.12642e-11
2.56545e-11
2.93316e-11
3.70774e-11
5.79272e-11
4.65866e-12
-1.94581e-11
-5.53818e-11
-9.14704e-11
-1.10246e-10
-1.11576e-10
-8.76037e-11
-2.72884e-11
2.30742e-11
1.98208e-11
2.541e-12
-1.19254e-11
-2.00424e-11
-1.98502e-11
-1.93639e-11
-1.70576e-11
-8.70069e-12
2.78574e-11
1.96704e-13
-6.56516e-11
-5.46597e-11
-5.85333e-11
-8.71019e-11
-1.1058e-10
-1.06786e-10
-9.32165e-11
-5.50094e-11
3.44117e-12
1.06492e-11
-7.71051e-12
-1.76593e-11
-2.06692e-11
-2.24746e-11
-2.489e-11
-2.68008e-11
-2.89877e-11
-2.80791e-11
1.12932e-10
-4.94547e-11
-1.25146e-10
-1.17451e-10
-1.41209e-10
-1.33873e-10
-8.11997e-11
-5.95366e-11
-6.40476e-11
-3.21213e-11
-1.17165e-12
-1.03395e-11
-2.17246e-11
-2.71708e-11
-2.67244e-11
-2.38426e-11
-2.37392e-11
-2.35358e-11
-2.60354e-11
2.34696e-10
9.31803e-11
-1.45435e-10
-2.03042e-10
-1.86963e-10
-1.06306e-10
-3.61289e-11
-1.54501e-11
-2.93101e-11
-4.55837e-11
-2.21515e-11
-1.2249e-11
-2.90237e-11
-3.239e-11
-1.95618e-11
-1.11069e-11
-1.84349e-11
-1.71863e-11
-1.10681e-12
3.07131e-10
2.5493e-10
-2.21147e-11
-2.17665e-10
-1.71026e-10
-4.44681e-11
-1.16984e-11
-4.51575e-12
3.94781e-12
-1.38196e-11
-2.94324e-11
-2.0893e-11
-4.10433e-11
-3.77931e-11
-1.35551e-11
2.98852e-12
3.62785e-12
1.21774e-12
7.6931e-12
3.58119e-10
3.3001e-10
1.11908e-10
-8.24424e-11
-7.10197e-11
-6.32924e-12
-1.09515e-11
-1.28275e-11
2.18062e-13
4.11615e-12
-1.77994e-11
-3.0131e-11
-4.12954e-11
-3.40474e-11
-1.19883e-11
3.17578e-12
2.47862e-12
3.09725e-12
5.54802e-12
4.19816e-10
3.48011e-10
1.57514e-10
2.20238e-11
1.98074e-12
2.06565e-12
-6.81531e-12
-1.0778e-11
-9.71105e-12
-4.55827e-12
-8.43466e-12
-3.06672e-11
-3.86268e-11
-2.52335e-11
-6.52784e-12
2.43304e-12
4.27824e-12
3.07011e-12
2.8385e-12
4.61709e-10
3.41897e-10
1.79804e-10
5.66415e-11
8.31719e-12
2.5642e-12
1.73484e-12
1.198e-12
1.06903e-12
6.56359e-14
-2.38439e-12
-2.11482e-11
-3.18398e-11
-1.61765e-11
-1.04604e-12
4.04896e-12
4.1128e-12
2.60273e-12
2.15543e-12
4.66039e-10
3.39697e-10
2.0624e-10
8.04781e-11
1.75296e-11
6.89646e-12
5.42675e-12
5.20023e-12
5.92362e-12
4.95766e-12
2.0727e-12
-8.9366e-12
-1.96896e-11
-6.85158e-12
2.07935e-12
4.17748e-12
3.71225e-12
2.4295e-12
2.03152e-12
4.57936e-10
3.50222e-10
2.27151e-10
9.75518e-11
2.64673e-11
9.61086e-12
7.69296e-12
7.65323e-12
8.12867e-12
6.7864e-12
5.55039e-12
1.0289e-12
-6.50878e-12
-2.29646e-12
2.46877e-12
4.01146e-12
3.54302e-12
2.33034e-12
2.0421e-12
5.93782e-13
1.56738e-12
-4.08883e-14
-3.87468e-14
-3.1294e-13
5.5687e-14
5.4449e-14
1.67871e-13
1.10134e-13
4.46517e-14
2.84385e-14
1.84971e-12
6.6121e-13
7.54673e-13
7.05776e-12
1.6559e-12
1.68708e-12
6.55315e-12
1.24661e-12
1.48355e-12
1.87593e-13
3.94616e-13
4.00088e-13
4.2717e-13
4.33372e-13
5.06403e-13
7.72088e-12
5.91399e-13
6.09085e-13
6.30477e-13
6.54006e-13
6.77067e-13
7.0202e-13
7.28321e-13
7.61388e-13
8.12658e-13
8.522e-13
9.75079e-13
9.9788e-13
1.0176e-12
2.07536e-11
2.44636e-12
2.27448e-12
2.10307e-12
1.21753e-11
8.91322e-12
9.27506e-12
-3.14948e-12
-1.05324e-10
-3.44755e-12
-9.94583e-12
-3.81077e-11
-1.40062e-11
-2.12896e-11
-1.62767e-11
-2.03424e-11
-1.88171e-12
-2.22013e-12
-2.37676e-12
-2.18815e-11
-1.06413e-12
-1.05189e-12
-1.01315e-12
-8.66437e-13
-8.00651e-13
-7.28358e-13
-6.72771e-13
-6.25359e-13
-5.83627e-13
-5.38068e-13
-4.88119e-13
-4.47263e-13
-4.0769e-13
-6.27724e-13
-2.25168e-13
-1.00183e-13
-5.01811e-14
2.03004e-14
7.51295e-14
3.33173e-13
1.57201e-12
1.82493e-12
1.07962e-11
1.78238e-12
1.95982e-12
9.25476e-12
1.02549e-12
1.20357e-12
7.09195e-12
8.8525e-13
1.2545e-12
5.93391e-12
3.82159e-13
4.03152e-13
4.1486e-13
3.70127e-12
6.98167e-13
9.62432e-13
4.47252e-12
3.58077e-13
-1.11249e-09
-8.19546e-10
-3.45807e-10
-5.2671e-11
4.44409e-11
1.09055e-10
1.18757e-10
1.04441e-10
9.08123e-11
7.54152e-11
5.84747e-11
4.99878e-11
4.91293e-11
4.80202e-11
4.38049e-11
3.6898e-11
2.89377e-11
1.83285e-11
1.07465e-11
-1.09102e-09
-7.75956e-10
-3.16798e-10
-6.01331e-11
-3.20199e-11
9.22787e-11
1.16859e-10
9.51984e-11
7.94042e-11
6.64794e-11
5.43226e-11
4.7588e-11
4.50729e-11
4.52562e-11
4.38115e-11
3.82234e-11
3.09438e-11
1.9807e-11
1.1681e-11
-1.03821e-09
-7.26426e-10
-2.39194e-10
-6.66615e-11
-9.36929e-11
5.06711e-11
1.08866e-10
8.29969e-11
6.46952e-11
5.80193e-11
4.82442e-11
3.80401e-11
3.51941e-11
4.07769e-11
4.44765e-11
3.7161e-11
2.89528e-11
1.99764e-11
1.30433e-11
-9.58304e-10
-6.71586e-10
-1.79618e-10
-9.05249e-11
-1.43897e-10
-3.50958e-12
8.29878e-11
7.46113e-11
7.15029e-11
7.67858e-11
6.04903e-11
4.23169e-11
2.37197e-11
2.93799e-11
3.54885e-11
3.38998e-11
2.86685e-11
1.91962e-11
1.3141e-11
-8.70657e-10
-5.91121e-10
-1.34786e-10
-1.03927e-10
-1.62279e-10
-7.12657e-11
2.55648e-11
5.45101e-11
7.28937e-11
7.4545e-11
6.01461e-11
2.34112e-11
2.65163e-12
8.94373e-12
1.56028e-11
2.08765e-11
2.14838e-11
1.77807e-11
1.10029e-11
-7.76883e-10
-4.70079e-10
-9.16028e-11
-9.32993e-11
-1.41427e-10