/*--------------------------------*- C++ -*----------------------------------*\
| =========                 |                                                 |
| \\      /  F ield         | OpenFOAM: The Open Source CFD Toolbox           |
|  \\    /   O peration     | Version:  4.1                                   |
|   \\  /    A nd           | Web:      www.OpenFOAM.org                      |
|    \\/     M anipulation  |                                                 |
\*---------------------------------------------------------------------------*/
FoamFile
{
    version     2.0;
    format      ascii;
    class       volVectorField;
    location    "9";
    object      U;
}
// * * * * * * * * * * * * * * * * * * * * * * * * * * * * * * * * * * * * * //

dimensions      [0 1 -1 0 0 0 0];

internalField   nonuniform List<vector> 
1280
(
(-4.29111e-16 0.285915 -0.577366)
(-2.66391e-16 0.59237 -0.952071)
(2.95489e-17 0.563587 -0.676596)
(2.80013e-17 0.668785 -0.580518)
(5.31871e-17 0.975226 -0.952696)
(-3.8233e-17 0.874992 -0.748408)
(-3.93489e-17 1.08333 -0.778796)
(-1.29247e-16 1.09847 -0.725922)
(9.05719e-18 1.48833 -1.17676)
(-2.60218e-17 1.40015 -0.904209)
(-8.1723e-18 1.56652 -0.795917)
(-4.00706e-16 1.9931 -1.44315)
(-4.77839e-16 1.88107 -1.17384)
(-5.64971e-16 2.12488 -1.05677)
(-1.31847e-15 2.62345 -1.84962)
(-1.19667e-15 2.46057 -1.56515)
(-1.21921e-15 2.84319 -1.36528)
(-1.11377e-15 3.19853 -2.93477)
(-9.24053e-16 3.70422 -1.96369)
(-1.07212e-15 3.32644 -3.71111)
(-7.69613e-16 3.78403 -0.307202)
(-1.61894e-15 4.04394 5.5982)
(-1.64139e-15 3.79254 8.20406)
(-1.75249e-15 4.1005 9.75254)
(-1.77794e-15 4.20415 10.373)
(-2.07755e-15 4.56045 11.0388)
(-1.62759e-15 3.83084 8.68604)
(-2.42625e-15 8.04284 14.1399)
(-2.49881e-15 8.15727 14.2962)
(-2.58657e-15 8.17889 14.3175)
(-2.6831e-15 8.19389 14.2325)
(-2.77771e-15 8.15988 14.0843)
(-2.88008e-15 8.14189 13.8788)
(-2.98799e-15 8.06857 13.6761)
(-3.12364e-15 8.05537 13.4792)
(-3.33398e-15 7.93279 13.364)
(-3.49621e-15 7.94647 13.292)
(-4.00032e-15 7.73878 13.2919)
(-4.09387e-15 7.76429 13.3483)
(-4.17478e-15 7.52232 13.6549)
(-3.61246e-15 9.11802 14.8432)
(-1.96495e-15 5.31959 10.3963)
(-1.82689e-15 3.99735 10.2083)
(-1.68771e-15 3.01491 10.4826)
(-2.03099e-15 0.387094 7.78339)
(-7.15921e-15 -0.733126 -5.57337)
(-7.44984e-15 0.0639106 -5.04553)
(2.5297e-15 0.547468 -5.50086)
(1.8659e-14 1.98674 -5.33019)
(2.76912e-15 -0.67705 -0.42652)
(7.98862e-15 0.664698 -0.3166)
(6.63319e-15 -2.04463 -5.35871)
(1.12499e-14 -0.556253 -5.62731)
(1.71001e-14 -0.0661575 -5.11764)
(1.30736e-14 0.739344 -5.55908)
(3.54089e-15 -0.411032 7.79176)
(1.51293e-15 -3.02179 10.4611)
(1.78323e-15 -4.01063 10.1812)
(1.90904e-15 -5.32203 10.3489)
(3.56459e-15 -9.03843 14.7894)
(4.36566e-15 -7.53639 13.6322)
(4.31544e-15 -7.77072 13.2834)
(4.1565e-15 -7.75071 13.218)
(3.55461e-15 -7.95814 13.2241)
(3.28472e-15 -7.94667 13.308)
(2.98814e-15 -8.069 13.4319)
(2.76009e-15 -8.08273 13.6348)
(2.56558e-15 -8.15554 13.8422)
(2.39437e-15 -8.1734 14.0519)
(2.20746e-15 -8.20718 14.2049)
(2.00254e-15 -8.19185 14.2966)
(1.83492e-15 -8.17022 14.2851)
(1.67257e-15 -8.05922 14.1411)
(1.32327e-16 -3.8292 8.7002)
(9.23768e-16 -4.56575 11.0839)
(4.11009e-16 -4.21307 10.403)
(2.05871e-16 -4.11212 9.77024)
(-8.32836e-17 -3.8011 8.20948)
(-3.08224e-16 -4.05432 5.63322)
(-1.36686e-15 -3.79746 -0.26961)
(-1.13605e-15 -3.33191 -3.6947)
(-1.31883e-15 -3.72273 -1.93205)
(-1.83492e-15 -3.23232 -2.90454)
(-1.28808e-15 -2.87689 -1.37109)
(-1.41631e-15 -2.49505 -1.56511)
(-1.70876e-15 -2.66536 -1.84308)
(-7.41098e-16 -2.15209 -1.04768)
(-8.69791e-16 -1.91238 -1.1608)
(-1.18365e-15 -2.04135 -1.41756)
(-6.39747e-16 -1.60354 -0.784987)
(-8.94015e-16 -1.44019 -0.891426)
(-1.13402e-15 -1.54767 -1.16341)
(-2.92105e-16 -1.15073 -0.733398)
(-2.91347e-16 -1.13645 -0.784334)
(-2.9476e-16 -0.924301 -0.739622)
(-6.29066e-16 -1.06149 -0.910615)
(-5.04547e-16 -0.736131 -0.557865)
(-6.96954e-16 -0.635292 -0.647349)
(-7.30939e-16 -0.701251 -0.952834)
(-2.58773e-16 -0.363545 -0.625043)
(1.2361e-13 -2.03394 4.13484)
(9.10607e-14 -1.60441 3.92173)
(3.8423e-14 1.16659 3.00155)
(5.85234e-15 1.96346 2.15592)
(-4.93787e-15 -0.0673015 1.72236)
(-1.21172e-14 -1.26505 1.7696)
(-1.31952e-14 -0.945652 2.03702)
(-1.16045e-14 -0.905703 2.04727)
(-1.00903e-14 -1.20477 1.88734)
(-8.37946e-15 -1.19893 1.56718)
(-6.49719e-15 -0.916083 1.15569)
(-5.5542e-15 -0.656968 0.657277)
(-5.45881e-15 -0.88145 0.212421)
(-5.33557e-15 -0.992696 0.0157663)
(-4.86721e-15 -0.481974 -0.304078)
(-4.09978e-15 -0.386201 -0.48362)
(-3.2153e-15 -0.520678 -0.66666)
(-2.0365e-15 -1.06817 -0.792479)
(-1.19405e-15 -1.24661 -0.85957)
(1.21225e-13 -1.97436 4.27498)
(8.62173e-14 -1.23904 4.0039)
(3.51998e-14 1.6542 3.13382)
(6.68145e-15 2.38452 2.56035)
(3.55777e-15 0.123198 2.18039)
(-1.02532e-14 -1.38551 1.97002)
(-1.29843e-14 -0.986457 2.36576)
(-1.05776e-14 -0.826798 2.34688)
(-8.82269e-15 -1.02437 2.10335)
(-7.3866e-15 -0.949371 1.69618)
(-6.03585e-15 -0.625686 1.17106)
(-5.28755e-15 -0.343279 0.480644)
(-5.0081e-15 -0.68906 -0.0663887)
(-5.02846e-15 -0.845282 0.0648028)
(-4.86795e-15 -0.301578 -0.326694)
(-4.24704e-15 -0.279451 -0.601649)
(-3.4382e-15 -0.461635 -0.741244)
(-2.20078e-15 -1.08329 -0.769752)
(-1.29789e-15 -1.27085 -0.868795)
(1.15356e-13 -1.93158 4.46893)
(8.0714e-14 -1.05368 4.19208)
(2.65771e-14 1.81801 3.45792)
(7.40683e-15 2.41586 3.31707)
(1.04103e-14 0.202245 3.0317)
(-5.63012e-15 -1.38728 2.45283)
(-1.20963e-14 -1.07557 2.84431)
(-9.22188e-15 -0.802999 2.95185)
(-7.18835e-15 -0.904478 2.64936)
(-6.44659e-15 -0.775835 2.1633)
(-5.36046e-15 -0.380533 1.44631)
(-4.22667e-15 -0.11629 0.408451)
(-3.91045e-15 -0.691282 -0.467319)
(-4.53077e-15 -0.821109 -0.0716155)
(-4.94183e-15 -0.159021 -0.323736)
(-4.129e-15 -0.220128 -0.734438)
(-3.21698e-15 -0.37389 -0.953505)
(-2.2196e-15 -0.932616 -0.849262)
(-1.44926e-15 -1.07029 -0.963976)
(1.06478e-13 -1.887 4.83143)
(7.46206e-14 -0.842848 4.5226)
(1.99576e-14 1.98295 4.02533)
(1.00583e-14 2.49588 4.30776)
(1.59885e-14 0.429033 4.02865)
(3.89954e-16 -1.30669 3.06356)
(-9.22086e-15 -1.15203 3.26465)
(-8.29015e-15 -0.76565 3.42811)
(-7.94476e-15 -0.725415 3.01476)
(-8.53176e-15 -0.498579 2.34081)
(-6.72115e-15 0.0652092 1.44097)
(-4.70188e-15 0.392717 -0.0425613)
(-2.63552e-15 -0.58752 -1.204)
(-3.26443e-15 -0.904894 -0.58454)
(-3.94317e-15 0.0170416 -0.602129)
(-3.76664e-15 -0.0846634 -0.976332)
(-3.18538e-15 -0.499688 -1.08763)
(-2.13291e-15 -1.21727 -0.806961)
(-1.46011e-15 -1.23039 -1.20446)
(9.67397e-14 -1.82739 5.41103)
(6.56801e-14 -0.696392 5.00432)
(1.49762e-14 1.9244 4.78975)
(1.15474e-14 2.41942 5.48783)
(1.8031e-14 0.719642 5.31021)
(7.91841e-15 -1.10352 3.81428)
(-2.84054e-15 -1.18281 3.46484)
(-6.05668e-15 -0.702664 3.4359)
(-8.0993e-15 -0.475 2.84872)
(-8.28278e-15 -0.133593 1.88713)
(-6.6829e-15 0.599843 0.647241)
(-2.60124e-15 0.963103 -1.03962)
(-2.94625e-16 -0.489101 -1.53724)
(-9.93748e-16 -1.03569 -0.887483)
(-1.73364e-15 -0.0658926 -0.807301)
(-2.31961e-15 -0.0502077 -1.26186)
(-2.38709e-15 -0.277019 -1.55194)
(-1.97564e-15 -0.728173 -1.05095)
(-1.22254e-15 -0.585911 -1.4992)
(8.63204e-14 -1.73893 6.16911)
(5.2231e-14 -0.56862 5.62307)
(1.01781e-14 1.78493 5.73199)
(1.03666e-14 2.26548 6.79405)
(1.57141e-14 1.0962 6.96626)
(1.38187e-14 -0.588432 5.18709)
(6.69491e-15 -0.957739 3.91547)
(6.65001e-16 -0.527584 3.49154)
(-2.38651e-15 -0.131083 2.92029)
(-1.43973e-15 0.358065 1.928)
(-1.96557e-16 1.24427 0.503614)
(1.30325e-15 1.3026 -0.434865)
(1.94715e-15 -0.636001 0.44462)
(1.06324e-15 -1.11965 0.280315)
(-6.23984e-16 0.285628 0.501186)
(-1.47294e-15 -0.0198234 -0.461587)
(-2.81853e-15 -0.739402 -1.0975)
(-2.38962e-15 -1.59562 -0.546344)
(-2.04807e-15 -1.10418 -2.51112)
(7.37151e-14 -1.6051 6.97925)
(3.61417e-14 -0.494903 6.27175)
(5.75422e-15 1.47728 6.74558)
(7.03329e-15 1.91881 8.16376)
(1.02608e-14 1.31584 8.96629)
(1.25857e-14 0.114472 7.75081)
(1.16414e-14 -0.486888 5.80609)
(7.97134e-15 -0.346692 4.73431)
(5.92638e-15 0.131444 3.98229)
(5.21028e-15 0.874519 3.0837)
(3.06721e-15 1.60003 2.38283)
(9.71612e-16 0.85991 3.16994)
(1.27404e-15 -1.08013 3.5931)
(1.03123e-15 -0.906053 2.55525)
(-3.17384e-18 0.613862 1.88165)
(1.09003e-15 0.603181 0.669513)
(5.69381e-16 0.0299641 -0.539487)
(-8.41512e-16 0.407761 -1.65991)
(-2.35551e-15 1.0364 -2.22993)
(5.92589e-14 -1.42675 7.70084)
(2.19535e-14 -0.472828 6.81184)
(2.22128e-15 1.04362 7.6833)
(2.78426e-15 1.37308 9.43418)
(4.30471e-15 1.2216 10.864)
(6.63217e-15 0.677236 10.5793)
(8.24677e-15 0.277621 8.80797)
(7.82018e-15 0.235513 6.93962)
(5.65084e-15 0.52716 5.76388)
(2.50254e-15 0.989073 5.48675)
(5.07567e-16 1.31848 6.16307)
(5.47874e-16 0.840851 7.07955)
(1.09393e-15 -0.375206 6.01352)
(1.63271e-15 -0.261403 4.60666)
(1.84684e-15 0.877404 4.74173)
(1.46886e-15 0.795224 5.2031)
(9.33856e-16 0.0191839 4.8109)
(9.18497e-16 -1.63242 5.83711)
(1.80405e-15 -5.98631 9.90539)
(4.29643e-14 -1.18371 8.21698)
(1.19588e-14 -0.518732 7.11716)
(-5.89667e-16 0.462609 8.34118)
(-1.50237e-15 0.643253 10.3026)
(-2.00947e-15 0.837356 12.0249)
(-1.77569e-15 0.928048 12.2819)
(-1.00982e-15 0.959595 11.0394)
(3.18235e-16 0.852929 9.18535)
(1.29774e-15 0.699889 7.8945)
(1.29841e-15 0.75613 7.86689)
(1.30917e-15 0.986448 9.06041)
(1.44613e-15 0.66345 10.8669)
(1.29413e-15 -0.258375 11.6152)
(1.64654e-15 -0.319387 11.5165)
(1.8501e-15 0.351192 12.2102)
(2.0177e-15 0.405046 12.8296)
(2.07156e-15 -0.252802 13.1537)
(2.31925e-15 -1.55368 12.755)
(2.80649e-15 -3.20945 12.2073)
(2.77679e-14 -0.889531 8.32495)
(7.24814e-15 -0.585173 6.911)
(-1.66947e-15 -0.185477 8.35611)
(-5.09802e-15 -0.105915 10.2151)
(-7.59195e-15 0.436984 11.546)
(-8.96416e-15 1.10046 11.3933)
(-8.24974e-15 1.55517 10.2329)
(-4.35397e-15 1.5135 8.78624)
(5.34784e-16 1.01647 7.67082)
(2.77517e-15 0.475312 7.64263)
(2.51813e-15 0.200653 9.4647)
(2.47654e-15 -0.198803 12.3048)
(1.95364e-15 -0.63299 13.835)
(1.19929e-15 -0.400718 13.3617)
(1.20988e-15 0.412673 12.3887)
(2.36269e-15 0.425848 12.224)
(2.8505e-15 -0.222851 12.0869)
(3.25907e-15 -1.32284 10.2299)
(4.11972e-15 -2.88624 6.16403)
(6.43636e-15 -0.484371 7.8778)
(5.17629e-16 -0.619884 6.114)
(-2.16201e-15 -0.795834 7.34714)
(-6.15354e-15 -0.650326 8.60641)
(-1.01634e-14 0.354344 9.07332)
(-1.22495e-14 1.43763 8.27047)
(-1.23553e-14 1.99416 7.37267)
(-9.73374e-15 1.87544 7.01877)
(-3.03204e-15 1.16111 7.04973)
(2.5638e-15 0.0550493 7.4523)
(2.20231e-15 -0.791532 9.26643)
(2.82333e-16 -1.13509 12.3885)
(-1.32504e-15 -0.68014 14.2134)
(-2.22693e-15 0.277088 13.6666)
(-2.20558e-15 0.924155 12.6506)
(-2.15155e-15 0.629689 12.6382)
(-1.89529e-15 0.578006 12.251)
(-9.66743e-16 1.42453 10.2223)
(3.09527e-15 2.99092 6.20742)
(2.1856e-17 -0.0252048 7.98558)
(-7.29462e-15 -0.476312 5.89457)
(-6.0733e-15 -1.10334 6.3263)
(-6.5037e-15 -0.839929 6.72528)
(-9.67799e-15 0.549652 6.34634)
(-1.22867e-14 1.77242 5.26199)
(-1.18651e-14 2.06373 4.80153)
(-1.03574e-14 1.63729 5.23001)
(-6.11215e-15 0.804533 6.24594)
(3.82352e-16 -0.436661 7.34715)
(1.18324e-15 -1.67653 8.72494)
(-8.56723e-16 -2.18206 11.2351)
(-1.96214e-15 -1.08578 12.1724)
(-2.29658e-15 0.21188 10.3724)
(-2.49717e-15 0.695414 9.67198)
(-2.76556e-15 0.525981 11.7372)
(-2.97787e-15 0.611832 12.8426)
(-3.22085e-15 1.60585 12.6694)
(-3.1199e-15 3.27415 12.1663)
(1.2548e-14 0.494891 8.00039)
(-5.49497e-15 -0.064787 5.73051)
(-1.39052e-14 -1.05973 5.34577)
(-1.30501e-14 -0.727667 5.13733)
(-1.56899e-14 0.908328 4.33021)
(-1.48748e-14 2.06278 3.45546)
(-9.02218e-15 2.02766 3.53777)
(-6.61518e-15 1.32303 4.01958)
(-7.1164e-15 0.312759 4.78678)
(-3.56903e-15 -0.944015 5.97218)
(-1.30183e-16 -2.28559 7.44639)
(-1.14884e-15 -2.63717 9.23849)
(-2.41384e-15 -0.453638 8.50164)
(-3.01898e-15 1.29862 5.2293)
(-2.96937e-15 0.704395 2.8788)
(-2.64918e-15 -0.638552 2.34477)
(-2.63769e-15 -0.0946663 4.54124)
(-2.61509e-15 1.70192 5.73315)
(-2.89283e-15 6.06776 9.86389)
(2.60774e-14 0.996511 7.49722)
(1.03534e-14 0.528742 5.49834)
(-1.61594e-14 -0.805089 4.22168)
(-2.25602e-14 -0.467092 3.62628)
(-2.07737e-14 1.22281 2.83863)
(-1.18118e-14 2.11535 2.63586)
(-4.01432e-15 1.84055 3.39669)
(-1.71667e-15 1.14854 3.74845)
(-3.25668e-15 0.0326202 3.68365)
(-5.06485e-15 -1.47044 3.87397)
(-2.46128e-15 -2.88398 5.10027)
(-1.361e-15 -2.74418 6.96142)
(-3.22486e-15 0.517867 5.99543)
(-3.59889e-15 2.34162 4.09791)
(-2.17354e-15 1.7999 2.8414)
(-1.2341e-15 -0.093829 0.531065)
(-2.04832e-15 -0.580799 -0.882055)
(-1.90959e-15 -0.606833 -2.05643)
(-1.22979e-16 -1.01527 -2.24719)
(3.41257e-14 1.36157 6.62352)
(2.83256e-14 1.22944 5.29851)
(-2.45719e-15 -0.255735 3.48719)
(-2.41851e-14 -0.245814 2.08606)
(-1.90029e-14 1.25467 1.72245)
(-4.9409e-15 1.85022 2.5385)
(-1.29982e-15 1.56493 3.58899)
(-5.0175e-16 1.17463 3.87201)
(4.38646e-16 0.243161 3.46499)
(-1.53551e-15 -1.5077 2.70443)
(-3.27026e-15 -3.40282 2.66897)
(-2.32144e-15 -3.05297 4.49603)
(-4.56037e-15 0.765598 3.87461)
(-4.19924e-15 2.67406 2.20229)
(-1.50612e-15 2.21669 1.96854)
(3.32058e-16 0.716061 0.756898)
(4.03094e-16 0.573203 -0.758874)
(1.35304e-16 1.5554 -0.58708)
(8.54789e-16 1.06508 -2.61983)
(3.9791e-14 1.55733 5.60791)
(3.66678e-14 1.76006 4.91674)
(1.24342e-14 0.545047 3.54094)
(-9.16026e-15 0.197483 1.7148)
(-7.89107e-15 1.03237 1.55834)
(-7.03249e-16 1.39242 2.80164)
(-1.21683e-15 1.31564 3.49963)
(-1.42528e-15 1.18825 3.72522)
(2.42291e-17 0.494887 3.53899)
(4.5735e-16 -1.18386 2.69332)
(-1.97771e-15 -3.48664 1.30162)
(-3.34788e-15 -3.32007 1.86239)
(-4.58838e-15 1.27169 1.95306)
(-3.78304e-15 3.14264 0.363962)
(-1.33204e-15 2.44299 0.914745)
(3.52864e-16 1.09206 0.164361)
(2.75403e-16 0.35034 -0.863142)
(3.44139e-16 0.737934 -0.897333)
(6.16446e-16 0.590714 -1.47517)
(4.66462e-14 1.64908 4.78208)
(3.86679e-14 2.04404 4.44576)
(1.75016e-14 1.05607 3.71216)
(2.44709e-15 0.531597 2.5368)
(2.20082e-16 0.853233 2.39878)
(2.29517e-16 1.11779 3.01885)
(-7.57256e-16 1.20324 3.21306)
(-1.19756e-15 1.16146 3.28468)
(-1.07901e-15 0.65049 3.24628)
(-5.06474e-16 -0.704592 2.72632)
(-9.37185e-16 -2.95869 0.993628)
(-3.40747e-15 -3.37845 -0.435763)
(-4.29186e-15 1.17179 -0.329382)
(-2.80373e-15 3.21886 -0.77625)
(-7.25315e-16 2.38964 0.0906985)
(2.70338e-16 1.32116 -0.195029)
(4.7536e-16 0.758877 -0.701837)
(3.41123e-16 1.35073 -0.818404)
(3.15389e-16 1.24817 -1.2337)
(5.1301e-14 1.69824 4.28781)
(3.79886e-14 2.18209 4.13326)
(1.99782e-14 1.33175 3.78212)
(6.29351e-15 0.718123 3.08158)
(9.24133e-16 0.823718 2.88352)
(2.84911e-16 1.06718 3.02774)
(1.92759e-16 1.20554 2.97303)
(1.33112e-16 1.18592 2.84968)
(1.18781e-16 0.762037 2.66712)
(7.29287e-18 -0.307098 2.2941)
(-2.64932e-16 -2.09413 1.04481)
(-2.3498e-15 -2.81122 -1.31017)
(-3.53775e-15 1.04229 -2.00757)
(-1.79739e-15 3.01131 -1.32603)
(-1.16227e-16 2.27891 -0.430994)
(4.49885e-16 1.39247 -0.489595)
(4.56978e-16 0.753378 -0.816811)
(2.89192e-16 1.12265 -0.909001)
(2.39493e-16 1.08797 -1.01051)
(5.17822e-14 1.71277 4.08693)
(3.77442e-14 2.23809 3.99439)
(2.29155e-14 1.4719 3.84043)
(8.94201e-15 0.851223 3.38681)
(1.94773e-15 0.848646 3.11196)
(7.66273e-16 1.07684 3.01192)
(6.02972e-16 1.25061 2.84332)
(5.77803e-16 1.25283 2.62058)
(6.5818e-16 0.854144 2.30693)
(5.50851e-16 -0.117355 1.86817)
(2.303e-16 -1.46729 1.07856)
(-9.92956e-16 -2.20772 -0.853764)
(-2.18773e-15 1.05918 -2.09529)
(-7.61287e-16 2.67694 -1.31377)
(2.31039e-16 2.12395 -0.726496)
(4.64165e-16 1.42069 -0.671177)
(4.12473e-16 0.860218 -0.803997)
(2.69944e-16 1.26824 -0.857223)
(2.25724e-16 1.26892 -0.924802)
(5.08817e-14 1.73899 4.01627)
(3.89135e-14 2.28624 3.93961)
(2.5239e-14 1.60094 3.87639)
(1.08391e-14 1.04812 3.5622)
(2.94082e-15 1.01157 3.23521)
(1.06787e-15 1.21301 2.99465)
(8.54774e-16 1.39539 2.77305)
(8.50359e-16 1.44234 2.52922)
(9.03185e-16 1.13086 2.20897)
(7.54045e-16 0.23627 1.71268)
(6.1671e-16 -0.905444 1.01785)
(1.14322e-16 -1.3718 -0.103053)
(-7.23197e-16 1.38335 -1.26079)
(-2.55162e-16 2.4954 -1.15202)
(2.74308e-16 2.03274 -0.931056)
(4.45717e-16 1.3973 -0.76598)
(3.93668e-16 0.878029 -0.811252)
(2.58927e-16 1.23918 -0.860309)
(2.269e-16 1.23983 -0.899853)
(2.57696e-17 8.42758 14.0881)
(-3.01317e-15 16.5904 28.544)
(-2.44709e-15 17.2892 27.7228)
(-2.59366e-15 15.9718 25.8542)
(-2.6893e-15 15.0807 23.3126)
(-3.48149e-15 13.9984 21.401)
(-3.40645e-15 13.1207 19.4661)
(-3.2932e-15 12.2571 18.0296)
(-3.36246e-15 11.5584 16.6615)
(-3.55143e-15 10.8015 15.4434)
(-3.82401e-15 10.1204 14.2777)
(-4.16361e-15 9.39127 13.2108)
(-4.55882e-15 8.72428 12.1657)
(-4.98555e-15 7.96633 11.2121)
(-5.54235e-15 7.33224 10.235)
(-6.20446e-15 6.47405 9.38644)
(-6.93473e-15 5.93715 8.42621)
(-8.41804e-15 4.7758 7.59775)
(-8.26042e-15 4.85359 7.11699)
(-6.95751e-15 4.17949 8.03938)
(1.5754e-17 8.34749 13.6712)
(-2.82515e-15 15.6851 27.5896)
(-1.99439e-15 15.6739 26.2806)
(-2.32983e-15 14.0726 24.4774)
(-2.41516e-15 13.0562 22.0053)
(-3.66025e-15 11.7261 20.1784)
(-2.70785e-15 11.0865 18.7056)
(-2.68269e-15 10.2386 17.4731)
(-2.8154e-15 9.61329 16.1542)
(-3.06807e-15 8.82908 14.9318)
(-3.41157e-15 8.183 13.6626)
(-3.765e-15 7.42768 12.4869)
(-4.17211e-15 6.80358 11.2691)
(-4.73293e-15 6.01676 10.1621)
(-5.47179e-15 5.45832 8.9595)
(-6.09584e-15 4.56619 7.95809)
(-7.14378e-15 4.19315 6.78899)
(-8.74428e-15 3.10713 5.96121)
(-7.84894e-15 3.87951 6.15132)
(-5.18454e-15 4.04373 7.95823)
(9.82637e-18 8.24162 14.1875)
(-9.56889e-16 15.9941 28.2659)
(-7.70294e-16 16.3644 27.9798)
(-9.80254e-16 14.5318 25.3377)
(-9.2289e-16 13.599 23.2424)
(-2.39783e-15 12.3129 21.1497)
(-1.18413e-15 11.5294 19.4659)
(-1.23607e-15 10.6377 18.0763)
(-1.33238e-15 9.91226 16.6615)
(-1.37186e-15 9.09598 15.3689)
(-1.55169e-15 8.41838 14.0737)
(-1.7391e-15 7.64484 12.8593)
(-1.95889e-15 7.00334 11.5961)
(-2.27588e-15 6.19264 10.4468)
(-2.56958e-15 5.64022 9.19162)
(-3.04097e-15 4.74121 8.16179)
(-3.52177e-15 4.41645 6.95837)
(-4.69029e-15 3.36137 6.14722)
(-3.9033e-15 4.14767 6.25505)
(-2.03901e-15 4.50177 8.60189)
(1.3192e-17 7.50037 12.7773)
(2.62581e-16 16.0643 27.934)
(1.80184e-16 16.812 28.6698)
(1.97032e-16 14.5857 25.0398)
(1.91699e-16 13.636 23.2682)
(-1.50077e-15 12.6199 21.4959)
(-1.27766e-15 11.6053 19.4119)
(-1.39403e-15 10.6401 17.8061)
(-1.51322e-15 9.89003 16.3833)
(-1.5037e-15 9.12751 15.1467)
(-1.60125e-15 8.4676 13.8822)
(-1.86433e-15 7.6815 12.6314)
(-2.05471e-15 6.99679 11.2952)
(-2.3372e-15 6.14221 10.0859)
(-2.78343e-15 5.55366 8.78835)
(-3.2344e-15 4.64348 7.74297)
(-3.63989e-15 4.283 6.52428)
(-4.58287e-15 3.25913 5.65634)
(-4.53426e-15 3.89355 5.68725)
(-3.12251e-15 3.99594 7.29146)
(-2.42022e-18 8.27258 13.9629)
(-6.07269e-17 16.982 28.6084)
(-3.93346e-17 17.6017 29.5745)
(-4.42235e-17 15.1292 25.2411)
(-4.86638e-17 13.9949 23.3462)
(3.09318e-16 13.7543 22.792)
(2.73241e-16 12.6496 20.4346)
(2.92087e-16 11.4888 18.3199)
(3.13558e-16 10.6673 16.7019)
(3.26687e-16 9.92646 15.4215)
(3.55018e-16 9.23518 14.1139)
(3.95511e-16 8.39198 12.748)
(4.47279e-16 7.57981 11.2746)
(5.16516e-16 6.63749 9.9299)
(5.89702e-16 5.93059 8.59568)
(6.74325e-16 5.01771 7.55634)
(7.69774e-16 4.58369 6.47974)
(1.14665e-15 3.62394 5.628)
(9.70939e-16 3.76289 5.20008)
(6.32457e-16 3.05347 5.19657)
(1.4693e-19 10.4135 17.6494)
(1.22758e-17 18.5306 30.3425)
(9.15316e-18 18.0611 30.0332)
(9.89796e-18 15.4231 25.067)
(1.37272e-17 14.5394 23.7237)
(-5.6236e-17 14.9786 24.1591)
(-6.23075e-17 13.9689 21.9019)
(-6.29294e-17 12.5295 19.2815)
(-6.66568e-17 11.5734 17.2576)
(-7.12722e-17 10.7172 15.7063)
(-7.85749e-17 9.86595 14.1135)
(-8.61333e-17 8.84034 12.4375)
(-9.72294e-17 7.79312 10.6633)
(-1.12165e-16 6.66963 9.00314)
(-1.27996e-16 5.72601 7.45495)
(-1.46876e-16 4.73039 6.2341)
(-1.69766e-16 4.10406 5.18678)
(-2.24313e-16 3.17289 4.26585)
(-2.43508e-16 2.71144 3.3992)
(-3.40729e-16 1.30044 1.6059)
(2.79366e-20 13.0183 22.8397)
(-2.45333e-18 19.8369 32.2737)
(-2.17102e-18 17.7127 30.2281)
(-2.27029e-18 15.2615 24.7889)
(-3.52282e-18 15.2714 25.3458)
(9.90134e-18 15.8598 25.946)
(1.40221e-17 14.6321 23.2759)
(1.42157e-17 13.0441 20.8012)
(1.46394e-17 12.0351 18.4797)
(1.56621e-17 10.7556 16.423)
(1.74269e-17 9.53258 14.2339)
(1.92664e-17 8.16488 12.1294)
(2.17254e-17 6.88555 10.0458)
(2.49638e-17 5.60056 8.12235)
(2.87394e-17 4.48807 6.34557)
(3.34919e-17 3.41517 4.8774)
(3.97905e-17 2.64767 3.68321)
(4.46704e-17 1.74096 2.60592)
(6.64895e-17 0.958042 1.34298)
(9.17554e-17 -0.794053 -1.60805)
(-1.14237e-20 14.2259 25.7813)
(5.42698e-19 19.6966 32.4691)
(5.22168e-19 16.6611 29.9379)
(5.30361e-19 14.7798 24.4306)
(8.5928e-19 15.3022 26.6546)
(-2.0234e-18 15.3697 26.7008)
(-3.23902e-18 13.5305 22.8481)
(-3.32782e-18 11.9469 21.2556)
(-3.44449e-18 10.7612 18.4876)
(-3.72244e-18 8.63165 15.7161)
(-4.18218e-18 7.07127 12.9646)
(-4.66719e-18 5.4421 10.7638)
(-5.34436e-18 4.14272 8.70316)
(-6.22276e-18 2.84295 6.86507)
(-7.29143e-18 1.73552 5.15121)
(-8.80263e-18 0.705181 3.70786)
(-1.07857e-17 -0.0601223 2.48232)
(-1.03733e-17 -0.751022 1.44665)
(2.31904e-18 -0.685222 0.629562)
(2.52348e-17 -0.0799155 0.955223)
(8.55106e-22 13.8716 25.3351)
(-1.30442e-19 19.0486 31.8991)
(-1.27626e-19 16.0039 29.5936)
(-1.40022e-19 14.3405 23.9391)
(-1.62223e-19 14.4557 25.9944)
(5.08203e-19 14.0595 25.7039)
(7.86535e-19 11.9159 21.0938)
(8.16556e-19 10.2752 19.863)
(8.68349e-19 8.63935 16.4792)
(9.66883e-19 6.29621 13.4514)
(1.14093e-18 4.7934 10.855)
(1.36015e-18 3.28385 8.84801)
(1.58042e-18 2.06091 7.00226)
(1.82477e-18 0.844254 5.32657)
(2.15225e-18 -0.207472 3.80517)
(2.01976e-18 -0.994202 2.6839)
(-3.53476e-19 -1.0122 2.62572)
(-5.83677e-18 0.656887 5.02839)
(-9.05297e-18 4.50697 9.83484)
(-3.19034e-18 5.46984 10.4911)
(5.11168e-22 13.3847 24.1199)
(3.16845e-20 18.8778 31.5717)
(3.152e-20 15.8054 29.3841)
(3.56848e-20 14.2606 23.4339)
(3.26002e-20 13.8342 24.5743)
(-1.22492e-19 13.5775 24.8469)
(-1.92286e-19 11.369 19.7248)
(-2.08398e-19 9.60255 18.2154)
(-2.27421e-19 8.12502 15.1228)
(-2.59129e-19 6.2364 12.3134)
(-2.70902e-19 4.81831 9.72074)
(-2.32081e-19 3.44312 7.45589)
(-2.22196e-19 2.27772 5.52045)
(-4.57506e-19 1.27107 3.91014)
(-1.16723e-18 0.579727 2.83181)
(-2.51469e-18 0.629669 2.9153)
(-4.16322e-18 2.17237 5.20623)
(-4.22797e-18 5.30043 10.3124)
(-4.10885e-19 9.19239 15.6739)
(2.02036e-18 7.73806 14.0967)
(-1.47517e-22 13.5469 23.91)
(-7.61448e-21 18.7715 31.2817)
(-7.76745e-21 15.6732 28.8992)
(-7.56143e-21 14.5326 23.8112)
(-5.46625e-21 13.6179 23.7779)
(3.23243e-20 13.4345 23.9947)
(4.63403e-20 11.0644 19.0913)
(5.30717e-20 9.75326 17.4249)
(5.5479e-20 8.50839 15.2808)
(5.59143e-20 7.26961 12.8339)
(5.9954e-20 5.93386 10.512)
(1.17934e-19 4.80286 8.11148)
(3.14108e-19 3.67385 5.98737)
(5.71807e-19 2.84415 4.23723)
(4.39801e-19 2.54063 3.3825)
(-4.25736e-19 3.01347 4.0682)
(-1.5179e-18 4.85578 6.51232)
(-1.41271e-18 6.9549 10.5777)
(4.4174e-19 8.76824 13.2798)
(-4.41698e-19 6.60646 11.9117)
(2.87226e-23 14.1768 24.7274)
(1.78711e-21 18.6275 31.1196)
(1.91135e-21 15.6981 27.7593)
(2.22031e-21 14.621 24.5285)
(2.71211e-21 13.6462 23.7568)
(-5.50908e-21 13.3917 22.491)
(-1.20337e-20 10.8993 19.4679)
(-1.38963e-20 10.2863 17.3205)
(-1.40464e-20 8.97377 15.7537)
(-1.548e-20 8.26599 13.7151)
(-2.37861e-20 7.16443 11.8891)
(-4.47311e-20 6.38362 9.87852)
(-5.16156e-20 5.50422 8.01688)
(6.50795e-20 4.87349 6.36235)
(4.07741e-19 4.70104 5.51401)
(8.0758e-19 5.23013 6.10214)
(1.07245e-18 6.23718 7.50369)
(1.23987e-18 6.62862 8.79169)
(9.09945e-19 6.24469 8.67874)
(-4.02135e-19 4.0578 6.90941)
(9.56594e-26 15.2417 27.1621)
(-4.0069e-22 18.9654 30.7552)
(-4.50218e-22 15.6346 27.9935)
(-5.12097e-22 15.5539 25.4008)
(-7.00534e-22 13.7556 23.6435)
(1.05608e-21 12.8844 21.1709)
(2.85668e-21 11.5979 19.4874)
(3.47781e-21 11.0793 17.8609)
(3.57878e-21 10.4187 16.7747)
(4.12537e-21 9.90071 15.2989)
(5.44035e-21 9.15412 13.7292)
(5.20786e-21 8.46664 12.0549)
(-3.10921e-21 7.74513 10.4062)
(-1.67638e-20 7.10275 8.8719)
(-2.10794e-20 6.57027 7.60138)
(-4.34675e-20 6.08635 6.62913)
(-9.90221e-20 5.38343 5.64581)
(-2.1041e-19 4.40976 4.4862)
(-3.67437e-19 3.09324 3.44395)
(-8.22043e-19 1.48644 1.15493)
(-1.65877e-24 16.2369 29.9706)
(8.94967e-23 18.7986 29.9536)
(1.05112e-22 15.3311 28.3042)
(1.18194e-22 15.9331 25.746)
(1.61194e-22 13.9412 24.7732)
(-2.00658e-22 13.8789 22.8921)
(-6.37266e-22 12.4831 21.2483)
(-8.11123e-22 12.1479 19.7482)
(-7.34071e-22 11.401 18.6955)
(-8.99225e-22 10.8475 17.2509)
(-1.7071e-21 9.9768 15.6338)
(-2.06375e-21 9.07979 13.7892)
(5.03231e-22 8.08221 11.8782)
(6.06481e-21 7.04866 9.89075)
(4.05877e-21 5.92158 7.8795)
(-8.40185e-21 4.77825 5.96084)
(-2.31247e-20 3.46432 4.09066)
(-3.80007e-20 2.08842 1.92345)
(-5.76515e-20 -0.189002 -0.363843)
(-5.2546e-19 -1.97217 -4.97193)
(6.1268e-25 16.2106 30.8749)
(-2.09678e-23 18.0679 28.5991)
(-2.37149e-23 14.6881 28.0803)
(-2.92951e-23 15.5771 25.4118)
(-4.75247e-23 13.069 24.5069)
(9.89461e-24 13.152 22.4585)
(9.37285e-23 11.616 21.4353)
(2.39001e-22 11.1848 19.8528)
(3.96967e-22 10.0793 18.5838)
(-1.11604e-22 9.30265 17.0918)
(-2.03574e-21 8.26623 15.5648)
(-2.90985e-21 7.30699 13.875)
(3.93055e-21 6.21517 12.0399)
(1.8754e-20 4.9739 9.81974)
(2.78155e-20 3.49723 7.22204)
(2.82415e-20 2.08798 4.75767)
(2.36203e-20 0.464365 2.14731)
(-3.1288e-20 -2.3283 -2.53599)
(-1.40167e-19 -3.61748 -4.59647)
(-1.50447e-19 -1.4954 -2.00803)
(-1.63236e-25 15.6546 30.52)
(5.05729e-24 18.0789 28.0471)
(6.463e-24 14.3194 27.6324)
(7.65697e-24 15.4706 24.788)
(1.91637e-24 12.9085 23.9367)
(-3.85837e-23 12.9503 21.7852)
(-7.97346e-23 11.4121 20.5413)
(-5.78492e-23 10.8327 18.9152)
(1.26095e-23 9.80651 17.608)
(-1.45586e-22 9.03027 16.2081)
(-7.35018e-22 8.1558 14.871)
(-6.42108e-22 7.33622 13.4894)
(2.8596e-21 6.4544 12.009)
(1.10623e-20 5.42405 10.1868)
(1.87619e-20 4.08739 7.73942)
(1.32369e-20 2.48238 4.74768)
(-1.2721e-20 1.11442 2.24654)
(-4.99534e-20 0.538803 0.840259)
(-1.0921e-19 -1.24041 -1.94102)
(-3.47681e-21 2.8478 4.78454)
(5.52929e-26 15.2723 30.7261)
(-1.01468e-24 18.382 27.8984)
(-7.65481e-25 14.1301 27.6407)
(-1.78694e-24 15.5299 24.7882)
(-8.66851e-24 13.0676 23.9216)
(-1.93272e-23 13.089 21.9014)
(-2.91327e-23 11.7947 20.6351)
(-1.53848e-23 11.2498 19.0572)
(6.52161e-23 10.4047 17.7042)
(2.58086e-22 9.75306 16.3299)
(4.61936e-22 9.06937 15.0285)
(1.25667e-22 8.42411 13.7199)
(-1.55618e-21 7.75677 12.3826)
(-4.08669e-21 7.06102 10.9421)
(-3.83424e-21 6.22597 9.2688)
(4.04039e-21 5.18314 7.11954)
(1.55996e-20 3.68599 4.38117)
(3.53092e-20 2.83671 2.95955)
(2.68066e-20 1.24267 1.01918)
(1.06231e-20 0.308828 -1.12224)
(-5.59892e-28 14.3556 30.7948)
(4.32895e-25 18.2222 27.665)
(8.36855e-25 13.5239 27.629)
(-2.81649e-25 14.5847 25.1763)
(-7.57768e-24 12.4783 24.2282)
(-2.17741e-23 12.1012 22.5695)
(-2.33869e-23 11.0206 21.321)
(2.23811e-23 10.3529 19.9534)
(1.18607e-22 9.5961 18.6929)
(1.59662e-22 8.95146 17.4284)
(-5.94998e-23 8.32137 16.1915)
(-5.71104e-22 7.7299 14.9457)
(-6.59765e-22 7.12721 13.6387)
(1.66625e-21 6.41769 12.0997)
(9.28181e-21 5.38224 9.98678)
(2.3543e-20 3.73372 6.79241)
(4.00309e-20 1.13026 2.30836)
(4.63069e-20 -1.83994 -4.1567)
(4.49129e-20 -2.94109 -4.53079)
(2.74211e-20 -2.13722 -5.53492)
(1.00707e-26 11.3716 28.6747)
(3.83272e-29 17.0427 25.146)
(2.94983e-26 12.0718 25.5582)
(-8.99585e-25 12.7144 23.8541)
(-4.58105e-24 10.9741 23.1188)
(-9.34666e-24 10.307 22.0382)
(-2.52356e-24 9.31112 21.1281)
(3.53319e-23 8.53296 20.1792)
(9.62126e-23 7.75784 19.2641)
(9.69707e-23 7.06283 18.3498)
(-1.03959e-22 6.41431 17.4429)
(-5.04735e-22 5.81419 16.5246)
(-5.02036e-22 5.22738 15.5442)
(1.58823e-21 4.58183 14.3571)
(8.13458e-21 3.73977 12.6802)
(1.98356e-20 2.51831 10.1427)
(3.2623e-20 0.886433 6.5084)
(3.88901e-20 -0.817225 2.10744)
(3.43671e-20 -2.04703 -1.59444)
(1.80377e-20 -1.68663 -2.98735)
(1.05932e-26 2.66997 17.0758)
(2.92299e-26 8.06768 13.7171)
(-2.86678e-26 5.1758 14.5934)
(-1.80572e-25 4.98763 14.2021)
(-3.88874e-25 4.05176 14.1729)
(-4.63673e-25 3.47744 14.0067)
(6.94271e-25 2.88979 13.8575)
(6.86306e-24 2.40676 13.6749)
(2.45664e-23 1.9851 13.4738)
(5.40511e-23 1.63728 13.2493)
(6.45242e-23 1.35944 13.004)
(-4.08361e-23 1.15577 12.7419)
(-4.38166e-22 1.03114 12.4754)
(-1.30575e-21 1.00493 12.216)
(-2.59287e-21 1.10471 11.9597)
(-3.75527e-21 1.30031 11.6897)
(-3.91677e-21 1.61882 11.2778)
(-2.75258e-21 2.35879 10.3282)
(-1.15581e-21 2.66635 8.83382)
(-1.9903e-22 -0.135293 6.71651)
(-1.0339e-26 -2.67776 17.0937)
(-2.9175e-26 -8.07167 13.7363)
(2.95364e-26 -5.17703 14.6134)
(2.05145e-25 -4.98549 14.2237)
(4.78741e-25 -4.04666 14.1965)
(5.17534e-25 -3.46934 14.0325)
(-1.3368e-24 -2.87864 13.8859)
(-9.53374e-24 -2.39252 13.7064)
(-2.93658e-23 -1.96769 13.5091)
(-5.4471e-23 -1.61645 13.2891)
(-4.17006e-23 -1.33467 13.0485)
(1.12064e-22 -1.12622 12.7913)
(5.5097e-22 -0.996219 12.5307)
(1.33429e-21 -0.965578 12.2816)
(2.18463e-21 -1.06431 12.044)
(2.35518e-21 -1.26447 11.7969)
(1.17034e-21 -1.59553 11.3963)
(-8.33586e-22 -2.35198 10.4382)
(-1.92957e-21 -2.67222 8.9254)
(-1.27829e-21 0.111091 6.76406)
(-1.00603e-26 -11.3873 28.7133)
(-6.75534e-27 -17.0632 25.181)
(-2.595e-26 -12.0904 25.5929)
(9.66401e-25 -12.7336 23.8884)
(4.64166e-24 -10.9942 23.1533)
(8.67508e-24 -10.3286 22.073)
(-3.75658e-25 -9.33503 21.1647)
(-4.00072e-23 -8.56014 20.2186)
(-9.3828e-23 -7.78917 19.3074)
(-6.79055e-23 -7.09947 18.398)
(1.67189e-22 -6.45792 17.4979)
(5.32785e-22 -5.86748 16.5901)
(3.13516e-22 -5.2933 15.6244)
(-1.94458e-21 -4.65458 14.4459)
(-6.92153e-21 -3.78592 12.7324)
(-1.0648e-20 -2.47918 10.0523)
(-2.05817e-21 -0.703723 6.18002)
(2.89589e-20 1.21647 1.59485)
(7.29395e-20 2.67131 -2.35596)
(1.04644e-19 2.15715 -3.73344)
(-1.27329e-27 -14.3712 30.8302)
(-4.18557e-25 -18.2506 27.6845)
(-7.92273e-25 -13.5464 27.652)
(4.51979e-25 -14.6172 25.1933)
(7.79258e-24 -12.5153 24.242)
(2.08126e-23 -12.1471 22.5829)
(1.88352e-23 -11.0763 21.3343)
(-2.9109e-23 -10.4209 19.9655)
(-1.09514e-22 -9.67727 18.7033)
(-1.07903e-22 -9.04824 17.4351)
(1.13641e-22 -8.43508 16.1937)
(4.44327e-22 -7.86488 14.947)
(2.79386e-22 -7.29283 13.6541)
(-1.38104e-21 -6.63001 12.161)
(-5.19084e-21 -5.65684 10.1428)
(-9.46373e-21 -4.12577 7.09489)
(-7.07986e-21 -1.80875 3.06435)