/*--------------------------------*- C++ -*----------------------------------*\
| =========                 |                                                 |
| \\      /  F ield         | OpenFOAM: The Open Source CFD Toolbox           |
|  \\    /   O peration     | Version:  4.1                                   |
|   \\  /    A nd           | Web:      www.OpenFOAM.org                      |
|    \\/     M anipulation  |                                                 |
\*---------------------------------------------------------------------------*/
FoamFile
{
    version     2.0;
    format      ascii;
    class       volScalarField;
    location    "12";
    object      p;
}
// * * * * * * * * * * * * * * * * * * * * * * * * * * * * * * * * * * * * * //

dimensions      [0 2 -2 0 0 0 0];

internalField   nonuniform List<scalar> 
1280
(
0.803833
0.745075
1.77119
2.66659
3.49159
3.78557
4.00073
4.33769
4.4568
4.38709
4.32873
4.19058
3.22123
2.43989
1.94878
-0.793124
-3.58545
-4.28131
-12.954
-19.6908
-19.1604
-5.38
15.9623
24.9761
26.3134
29.1991
4.09098
5.39217
6.55197
6.38751
5.77528
4.98874
3.90516
2.52806
1.069
-0.689669
-2.14653
-4.24346
-4.5896
-8.03443
-24.4496
-8.95822
-2.23966
2.36433
14.8367
13.7381
13.9748
14.0872
14.2923
14.1224
14.0808
13.8015
13.8983
14.2336
14.1095
13.9193
1.94939
-2.18986
-8.4698
-24.7897
-7.9014
-4.44351
-4.01594
-1.90525
-0.423902
1.33387
2.78886
4.15088
5.21557
5.96183
6.53531
6.73231
5.42073
0.196517
28.0729
25.7435
24.9155
16.3522
-4.78321
-18.4254
-18.4596
-11.3854
-4.97137
-3.66113
0.0773027
3.57013
4.54669
5.35218
6.21437
6.32622
6.13263
5.94359
5.45864
4.66758
4.38857
4.36146
2.7999
0.863859
0.493003
1.0259
-0.105047
1.0503
0.83876
0.831371
1.12087
1.02259
0.268152
-1.73371
-3.5369
-7.55213
-6.71799
-1.63447
2.48738
5.00499
3.86228
1.14317
0.199487
-0.0358538
0.417796
-0.150276
1.88444
1.58744
1.56451
-0.103055
-1.56679
-2.65264
-2.96638
-4.53858
-6.10376
-6.92719
1.78783
8.46472
12.2735
10.0567
3.6542
0.54603
-0.376899
0.657961
-0.091759
1.91978
1.3663
2.21569
-0.347278
-2.33378
-4.48196
-6.2401
-5.85091
-4.48031
-9.10457
3.34273
12.2162
17.8119
15.6663
6.64521
0.680322
-1.26436
0.888833
-0.0825264
1.8826
1.26415
1.86625
-1.73274
-4.04884
-6.27765
-8.17738
-5.85981
-7.14329
-11.5116
3.74167
15.9979
23.9359
21.3996
9.78017
0.105854
-3.24194
0.259033
-0.129608
1.62031
0.821294
0.789298
-2.5789
-4.39805
-6.16665
-8.51446
-7.76747
-14.0488
-14.4866
3.52461
19.8388
29.9847
26.5408
12.2705
-1.55182
-6.59618
-1.776
-0.198254
1.2707
0.145983
-0.335118
-3.00348
-3.93748
-5.08169
-7.60105
-10.0435
-20.2681
-18.2709
2.93181
23.1736
35.6371
31.1406
14.2984
-5.0813
-12.1816
-4.44823
-0.242902
1.09388
-0.103418
-0.653826
-2.74287
-2.90662
-3.67661
-6.22357
-11.5513
-23.8372
-21.1642
2.11645
25.7205
39.8249
33.8773
16.6129
-6.72892
-15.7385
-12.0722
-0.149745
1.15376
0.0726112
-0.513102
-1.9026
-1.66059
-2.09977
-4.42883
-11.5498
-24.1151
-21.3331
0.724711
26.4787
40.3639
34.512
18.3564
0.607307
-8.88851
-5.78641
0.284764
1.59501
0.682253
-0.453235
-0.710289
-0.309409
-0.384211
-2.2456
-10.0897
-21.8325
-19.4556
-0.947426
25.2565
34.9557
32.431
21.0341
12.5692
18.2714
30.7448
1.31239
2.53198
2.08163
-0.464388
0.441856
0.966425
1.37022
0.182764
-7.74462
-18.6122
-17.5067
-3.58972
17.4275
22.8917
24.8175
20.1968
16.2966
26.6217
22.4896
2.98064
4.08894
3.93123
-0.400958
1.54614
2.06749
3.10517
2.81389
-4.41892
-14.5668
-15.5504
-6.38017
8.91616
11.1901
15.7338
19.6225
18.1827
26.9268
21.569
5.2507
4.83844
4.69511
0.498338
2.39212
3.04046
4.65075
5.43476
-0.595008
-9.78643
-12.5219
-8.23768
-0.764885
-2.69522
6.76692
21.2543
19.9268
23.4817
32.7969
5.47801
4.93347
4.82975
1.73663
2.86294
3.89912
5.81661
7.61091
2.51221
-5.33625
-8.59374
-8.72383
-9.04513
-7.2517
2.71732
20.0481
21.0626
13.3169
1.26135
4.46295
4.10405
4.11358
2.06309
3.1661
4.49887
6.34673
8.76444
4.32695
-1.68019
-4.8993
-8.94475
-15.6913
-10.1191
-0.219386
17.0308
18.5555
8.45034
-0.635747
3.05353
3.21171
3.67453
2.20565
3.22714
4.71758
6.01415
8.76193
5.16475
1.02324
-2.3873
-9.91339
-19.9375
-15.453
-1.43039
13.9702
17.0125
9.43573
4.09793
2.09625
2.48843
3.07827
2.14247
3.08005
4.52736
5.33202
7.66787
5.24531
2.39022
-1.35127
-11.4405
-18.549
-19.2909
-1.73554
11.0096
14.0215
7.24393
4.473
1.33716
1.87272
2.48228
1.8984
2.70021
3.93277
4.62551
5.9982
4.67029
2.61134
-1.30458
-12.9558
-15.032
-19.2892
-1.91525
8.25282
10.9565
6.09289
4.03892
0.80657
1.39466
1.92582
1.61577
2.2688
3.1857
3.83815
4.31732
3.58508
2.03317
-1.59875
-13.627
-14.1468
-16.3896
-1.77383
5.68675
7.78672
4.42237
3.24536
0.366529
1.04625
1.47682
1.32062
1.85774
2.58509
3.02295
2.60842
2.31326
1.11367
-1.31568
-10.6999
-14.2123
-13.7913
-2.21884
3.4675
5.04583
2.98353
2.20425
0.0109631
0.326784
0.434881
0.298623
0.633008
1.04701
1.38829
0.636995
0.853125
0.368552
-0.595991
-4.46722
-10.309
-9.15161
-1.53408
1.90573
2.43448
1.19839
0.821207
49.5893
51.2795
50.9547
51.2925
50.2281
49.3485
47.9685
46.365
44.7104
43.2955
42.013
40.8714
39.889
39.0793
38.4368
37.9899
37.707
37.6134
37.6225
37.7112
-8.91502
-5.09677
-2.91326
-0.0786842
2.06361
4.05818
5.83068
7.41575
8.86256
10.1638
11.3859
12.5539
13.6788
14.796
15.8758
16.9776
17.9858
19.0912
19.8858
21.024
-28.8344
-26.8985
-23.4376
-19.6304
-16.532
-13.955
-11.6833
-9.69763
-7.88975
-6.2428
-4.69602
-3.18533
-1.67305
-0.0955759
1.53103
3.27896
4.97702
6.80644
8.20146
10.3176
-44.5969
-45.7027
-44.6487
-43.2357
-42.3718
-41.7816
-41.2367
-40.889
-40.6309
-40.5162
-40.4676
-40.4245
-40.2973
-39.9369
-39.2282
-37.9199
-36.1735
-33.7688
-31.8113
-28.7666
-14.2334
-20.1352
-24.4081
-28.2231
-31.6529
-35.0947
-38.0878
-40.87
-43.1647
-45.2042
-46.9846
-48.631
-50.1703
-51.619
-52.9649
-54.1303
-54.942
-55.2303
-55.3271
-52.9762
34.8543
28.4174
24.2303
19.3346
14.6138
9.42611
4.55611
-0.40133
-4.86783
-8.99671
-12.4953
-15.3771
-17.4547
-18.655
-18.9382
-18.5022
-17.7325
-17.2712
-18.3043
-20.7787
80.9513
78.264
76.9721
75.4514
74.7021
73.3141
72.3369
70.9223
69.5251
67.6773
65.4309
62.4815
58.785
54.4454
49.9385
45.8655
43.0455
42.3901
42.5122
38.4682
76.8788
77.8031
77.9574
77.9096
78.1709
77.8076
77.7218
77.0876
76.4432
75.5036
74.5001
73.4212
72.3627
71.363
70.5034
69.8079
69.2676
68.5387
68.4711
67.1642
62.9766
65.2532
66.7539
67.8397
69.6188
70.5813
72.1093
73.1229
74.1598
74.8231
75.1721
75.1093
74.6855
74.0811
73.7083
73.8795
74.7565
75.8925
76.7976
77.1642
41.4002
43.5269
45.3392
46.0878
48.1014
48.9145
50.537
51.6798
53.0215
54.2954
55.5699
56.8384
58.0761
59.2898
60.4844
61.7419
63.0232
64.5193
65.6758
67.1096
19.2174
21.0792
23.2891
23.7887
26.286
27.0757
29.086
30.3912
32.0356
33.547
35.0793
36.6035
38.108
39.6191
41.1096
42.6507
44.1258
45.7821
47.041
48.8001
-7.41814
-7.06686
-4.77025
-5.24941
-2.7052
-2.65394
-0.623853
0.298577
1.98725
3.46706
5.16954
6.95383
8.84581
10.8504
12.8989
15.0695
17.194
19.6214
21.6157
24.7419
-24.455
-27.2545
-26.192
-28.9559
-28.1553
-30.6138
-30.6131
-32.3719
-32.9973
-34.1745
-34.8265
-35.2268
-35.042
-34.2962
-33.0056
-31.1789
-29.169
-26.8024
-24.9977
-21.4088
-1.95358
-6.39639
-6.18994
-10.2972
-10.676
-14.4543
-15.9107
-19.336
-21.8278
-25.2455
-28.3997
-31.7158
-34.7339
-37.4667
-39.6587
-41.4728
-42.8338
-43.3468
-43.9426
-42.3165
32.6047
29.266
30.8524
27.4268
28.8579
26.3781
26.8217
25.3765
25.0951
24.1827
23.6231
22.8945
22.2132
21.3984
20.4304
19.0227
17.0714
15.0387
12.507
9.45898
41.2146
39.5105
42.2153
39.3229
42.3949
40.9102
42.7162
42.6791
43.7088
44.2074
44.8917
45.3976
45.8651
46.2629
46.5985
46.7411
46.5643
46.3177
46.2631
45.4953
39.393
37.0111
40.3169
35.2556
37.1393
34.2473
34.2277
32.9458
32.561
32.1078
31.9985
31.9991
32.1124
32.2743
32.3766
32.4002
32.4406
33.0964
34.5521
36.658
21.9633
15.8026
24.3547
17.9691
20.4425
17.6587
16.9284
15.0044
13.387
11.5472
9.76086
7.98362
6.28557
4.69147
3.26711
2.20389
1.80012
2.79994
4.25106
6.94301
35.8121
13.1698
21.0823
9.85989
6.88211
0.0682385
-5.06755
-10.4786
-15.1654
-19.3238
-22.7252
-25.3217
-27.0225
-27.754
-27.4226
-26.0437
-23.6246
-20.3906
-17.3942
-14.5869
731.024
648.016
598.632
542.171
492.967
445.519
401.429
359.827
320.728
283.86
249.066
216.156
184.913
155.255
127.205
99.9474
73.9609
53.9404
30.7592
-5.89503
729.74
646.73
597.347
540.885
491.68
444.231
400.141
358.538
319.438
282.569
247.775
214.863
183.62
153.961
125.911
98.6539
72.6691
52.6517
29.4713
-7.18539
34.5139
11.8704
19.7824
8.559
5.58044
-1.23431
-6.37095
-11.7829
-16.4705
-20.6297
-24.0317
-26.6287
-28.3299
-29.0616
-28.7306
-27.3518
-24.9324
-21.6999
-18.7056
-15.8979
20.6485
14.4871
23.0385
16.6521
19.1245
16.3398
15.6085
13.6836
12.0652
10.2244
8.4369
6.65826
4.95845
3.36214
1.93507
0.869723
0.464887
1.46574
2.91712
5.6101
38.0848
35.704
39.0089
33.9477
35.8326
32.9398
32.9208
31.6383
31.253
30.7983
30.687
30.6851
30.7957
30.9546
31.0548
31.0778
31.1209
31.783
33.2441
35.3543
39.9079
38.2097
40.9158
38.0263
41.1008
39.6182
41.4269
41.3924
42.4252
42.927
43.6151
44.1254
44.5979
45.001
45.3421
45.4909
45.3216
45.0812
45.0324
44.2697
31.4178
28.085
29.6744
26.2527
27.6893
25.2138
25.6631
24.2228
23.9464
23.0384
22.4822
21.7554
21.0741
20.2573
19.2844
17.8681
15.9088
13.8728
11.3381
8.27818
-3.18568
-7.63509
-7.43306
-11.5474
-11.9326
-15.7182
-17.1823
-20.6158
-23.1158
-26.542
-29.7034
-33.0256
-36.0484
-38.7838
-40.9776
-42.7935
-44.1514
-44.6635
-45.2637
-43.6422
-25.8145
-28.6247
-27.5675
-30.3371
-29.5427
-32.0063
-32.0109
-33.7744
-34.4035
-35.5837
-36.2368
-36.6368
-36.451
-35.7044
-34.4138
-32.5897
-30.5845
-28.2226
-26.4197
-22.8298
-8.83313
-8.48673
-6.19042
-6.67132
-4.12786
-4.07795
-2.04831
-1.12703
0.561116
2.03975
3.74113
5.52396
7.41426
9.41692
11.4635
13.6329
15.7563
18.1843
20.1804
23.3086
17.8182
19.6783
21.8884
22.3872
24.8845
25.6738
27.6841
28.989
30.6334
32.1446
33.6768
35.2009
36.7053
38.2163
39.7066
41.2479
42.7231
44.3798
45.6392
47.3992
39.9736
42.1019
43.916
44.6656
46.6804
47.4947
49.1182
50.2619
51.6044
52.8788
54.1534
55.4217
56.6591
57.873
59.0685
60.3281
61.6123
63.1116
64.2711
65.7079
61.6009
63.875
65.374
66.4557
68.2309
69.1879
70.7094
71.7164
72.7461
73.4039
73.75
73.6892
73.275
72.6891
72.3413
72.535
73.4277
74.5716
75.4793
75.8546
75.427
76.3589
76.5166
76.4757
76.7442
76.3915
76.3189
75.703
75.0803
74.1673
73.1943
72.1493
71.1268
70.1632
69.3294
68.6448
68.1004
67.3577
67.2822
65.9805
79.8206
77.1604
75.8885
74.3907
73.6578
72.2862
71.3232
69.9197
68.5294
66.6831
64.4304
61.4654
57.7428
53.3672
48.8157
44.7037
41.8539
41.1757
41.2918
37.254
33.8865
27.4618
23.2792
18.3859
13.6692
8.48952
3.63179
-1.31215
-5.76406
-9.87931
-13.3652
-16.2362
-18.3057
-19.5002
-19.7833
-19.3589
-18.6109
-18.1676
-19.2123
-21.7241
-15.2047
-21.1104
-25.3992
-29.235
-32.6813
-36.1405
-39.1531
-41.9584
-44.2812
-46.3551
-48.1752
-49.8664
-51.4537
-52.9491
-54.3402
-55.5444
-56.3797
-56.6811
-56.7882
-54.4572
-45.5813
-46.7297
-45.7534
-44.4143
-43.6161
-43.086
-42.5984
-42.3062
-42.1007
-42.0346
-42.029
-42.0221
-41.9229
-41.5796
-40.878
-39.5718
-37.8248
-35.4259
-33.4774
-30.4396
-30.3768
-28.4704
-25.037
-21.2495
-18.1716
-15.6162
-13.3637
-11.3943
-9.59902
-7.96089
-6.41888
-4.90936
-3.39526
-1.81363
-0.181688
1.57127
3.27224
5.10256
6.49813
8.6145
-10.662
-6.86486
-4.64933
-1.79111
0.367175
2.37187
4.15163
5.74448
7.19954
8.51061
9.74128
10.9168
12.0478
13.1693
14.2515
15.3535
16.36
17.4608
18.2513
19.3808
47.8893
49.5856
49.2163
49.483
48.327
47.3482
45.849
44.2106
42.5722
41.1641
39.8924
38.768
37.8072
37.0231
36.4087
35.9921
35.7382
35.6748
35.7065
35.8284
)
;

boundaryField
{
    outletWall
    {
        type            fixedValue;
        value           uniform 0;
    }
    fineWalls
    {
        type            zeroGradient;
    }
    fineFrontAndBack
    {
        type            zeroGradient;
    }
    fineplugLeft
    {
        type            cyclicAMI;
        value           nonuniform List<scalar> 
20
(
28.5621
29.1801
29.242
29.7363
30.254
30.9632
31.7691
32.6922
33.6948
34.7655
35.9139
37.0787
38.1704
42.9792
45.3187
45.4451
46.0292
43.9562
39.9476
35.8393
)
;
    }
    fineplugRight
    {
        type            cyclicAMI;
        value           nonuniform List<scalar> 
20
(
27.0825
27.6765
27.7366
28.2095
28.7089
29.3938
30.1763
31.076
32.0575
33.1063
34.2383
35.4042
36.4526
40.658
43.4931
43.8103
44.5695
42.6435
38.7118
34.6264
)
;
    }
    inletOutletLeft
    {
        type            cyclicAMI;
        value           nonuniform List<scalar> 
20
(
28.5621
29.1801
29.242
29.7363
30.254
30.9632
31.7691
32.6922
33.6948
34.7655
35.9139
37.0787
38.1704
42.9792
45.3187
45.4451
46.0292
43.9562
39.9476
35.8393
)
;
    }
    inletLeft
    {
        type            zeroGradient;
    }
    inletWallsLeft
    {
        type            zeroGradient;
    }
    inletFacesLeft
    {
        type            zeroGradient;
    }
    inletOutletRight
    {
        type            cyclicAMI;
        value           nonuniform List<scalar> 
20
(
27.0825
27.6765
27.7366
28.2095
28.7089
29.3938
30.1763
31.076
32.0575
33.1063
34.2383
35.4042
36.4526
40.658
43.4931
43.8103
44.5695
42.6435
38.7118
34.6264
)
;
    }
    inletRight
    {
        type            zeroGradient;
    }
    inletWallsRight
    {
        type            zeroGradient;
    }
    inletFacesRight
    {
        type            zeroGradient;
    }
}


// ************************************************************************* //
