/*--------------------------------*- C++ -*----------------------------------*\
| =========                 |                                                 |
| \\      /  F ield         | OpenFOAM: The Open Source CFD Toolbox           |
|  \\    /   O peration     | Version:  4.1                                   |
|   \\  /    A nd           | Web:      www.OpenFOAM.org                      |
|    \\/     M anipulation  |                                                 |
\*---------------------------------------------------------------------------*/
FoamFile
{
    version     2.0;
    format      ascii;
    class       volVectorField;
    location    "12";
    object      U;
}
// * * * * * * * * * * * * * * * * * * * * * * * * * * * * * * * * * * * * * //

dimensions      [0 1 -1 0 0 0 0];

internalField   nonuniform List<vector> 
1280
(
(1.9296e-16 -2.07292 -1.56296)
(1.41604e-16 -1.65978 -1.65642)
(2.37298e-16 -1.50087 -1.156)
(5.48135e-16 -1.221 -1.22694)
(1.87349e-15 -1.2101 -1.56707)
(2.50858e-15 -0.759559 -1.05552)
(1.82651e-15 -0.652334 -1.30105)
(5.84083e-16 -0.389723 -1.39597)
(-1.50889e-15 -0.189239 -2.01329)
(-2.50971e-15 0.123366 -1.50927)
(-2.87771e-15 0.398618 -1.30145)
(4.95634e-16 0.6958 -2.32326)
(1.23471e-15 1.00207 -1.7956)
(1.20453e-15 1.31776 -1.48265)
(1.25196e-15 1.8531 -2.89982)
(8.78563e-16 2.11886 -2.3155)
(8.52598e-16 2.51971 -1.81672)
(6.19824e-16 3.47349 -4.32027)
(3.83364e-16 3.71072 -3.24367)
(2.57169e-16 4.34447 -3.67336)
(2.52862e-16 4.19645 -2.61458)
(-4.67204e-16 4.43349 3.94871)
(-8.2405e-16 4.11745 8.50272)
(-1.23726e-15 4.28221 10.6882)
(-1.49792e-15 4.46294 11.5224)
(-2.09313e-15 4.85217 11.8665)
(-2.04183e-15 4.10771 8.76913)
(-2.6079e-15 8.5144 13.5278)
(-2.80235e-15 8.50501 13.1631)
(-2.94864e-15 8.50443 12.5955)
(-3.0164e-15 8.50452 12.0125)
(-3.01212e-15 8.50426 11.5285)
(-2.89443e-15 8.51853 11.2305)
(-2.51439e-15 8.52874 11.1526)
(-1.7456e-15 8.53553 11.2519)
(-5.90792e-16 8.49512 11.4162)
(8.7133e-16 8.47013 11.5953)
(1.98843e-15 8.33274 11.7454)
(2.55945e-15 8.33376 12.2416)
(1.28154e-15 8.0004 12.5161)
(3.61309e-15 9.54729 14.6516)
(2.96484e-15 5.52843 10.5054)
(2.7506e-15 4.26484 10.334)
(2.40614e-15 3.17141 10.052)
(3.06663e-15 1.31692 8.59277)
(1.77601e-15 1.03867 4.17701)
(1.72799e-15 -0.086032 3.76521)
(-3.29159e-16 -0.651777 4.42282)
(2.45508e-14 -1.15203 -3.6995)
(3.5653e-14 0.104715 -3.71963)
(1.21468e-14 -0.00558101 -4.79704)
(-3.7832e-15 0.235954 -4.04097)
(-4.44822e-15 0.370502 1.58819)
(-1.82209e-15 0.684596 3.09867)
(-1.30895e-15 -0.938288 3.11975)
(-3.24163e-15 -1.0814 8.23984)
(-3.59394e-15 -2.87986 9.95193)
(-3.85043e-15 -3.95775 10.2339)
(-4.06172e-15 -5.21165 10.4293)
(-4.68799e-15 -9.30938 14.6391)
(-1.44578e-15 -7.87114 12.567)
(-2.67177e-15 -8.19992 12.3514)
(-2.07713e-15 -8.20191 11.8967)
(-8.88879e-16 -8.34034 11.7873)
(5.69809e-16 -8.36992 11.6417)
(1.63837e-15 -8.41487 11.5021)
(2.20624e-15 -8.41364 11.4149)
(2.37791e-15 -8.40807 11.4913)
(2.39249e-15 -8.39729 11.7756)
(2.40868e-15 -8.40015 12.2383)
(2.35115e-15 -8.40144 12.7992)
(2.15195e-15 -8.39911 13.3548)
(1.88988e-15 -8.4182 13.7258)
(8.9847e-16 -4.22685 9.03834)
(1.18303e-15 -4.97194 11.7255)
(6.02432e-16 -4.59645 11.345)
(5.10554e-16 -4.41519 10.466)
(3.1615e-16 -4.25253 8.23682)
(2.80488e-16 -4.5641 3.66798)
(-1.08987e-16 -4.32034 -2.84927)
(2.59231e-16 -4.46393 -3.71446)
(1.34555e-16 -3.79144 -3.18634)
(4.60515e-16 -3.82966 -4.27987)
(7.14981e-16 -2.65539 -2.33169)
(7.79855e-16 -2.21752 -2.72375)
(1.38152e-15 -1.85228 -3.2768)
(1.74685e-15 -1.14968 -1.72)
(1.32552e-15 -0.789488 -2.07582)
(1.20672e-15 -0.367414 -2.78836)
(6.80427e-16 0.0901377 -1.90029)
(-5.0938e-16 0.43111 -1.6633)
(2.32871e-16 1.00482 -2.09819)
(8.09765e-16 1.11691 -1.32307)
(1.27563e-15 1.44229 -1.24294)
(2.0648e-15 1.48203 -1.12069)
(2.65685e-15 2.19062 -1.64326)
(1.88227e-15 2.09893 -1.10415)
(1.46029e-15 2.36751 -0.945159)
(1.03967e-15 2.63408 -1.34714)
(2.3372e-16 2.93081 -1.2925)
(1.87943e-15 -1.63596 0.820845)
(2.12973e-15 -2.11414 0.916723)
(2.18251e-15 0.984726 0.872781)
(2.69425e-15 3.12449 1.6668)
(3.38534e-15 3.73906 3.52493)
(4.04733e-15 4.0917 5.41994)
(4.35252e-15 4.69674 6.71905)
(4.13573e-15 4.57878 6.76651)
(3.62613e-15 1.9434 4.29263)
(3.48586e-15 -2.76323 0.114724)
(3.1532e-15 -6.04559 -0.718228)
(2.32681e-15 -6.78638 -1.36242)
(1.32896e-15 -6.00619 -1.94502)
(5.51088e-16 -3.91612 -2.25829)
(1.1826e-16 -1.34772 -2.46266)
(-3.483e-17 0.587664 -2.87813)
(-1.35356e-16 0.99891 -3.00715)
(-1.27312e-16 0.935372 -2.94446)
(-4.48787e-16 1.57279 -2.49623)
(1.89837e-15 -1.7061 0.975907)
(2.12897e-15 -2.03654 1.13183)
(2.43305e-15 0.639806 1.44909)
(3.41174e-15 2.1757 3.33108)
(4.22475e-15 2.48846 5.61294)
(4.49963e-15 3.08759 7.34075)
(4.07423e-15 4.31549 8.33661)
(3.19058e-15 5.39912 8.23889)
(2.5142e-15 4.2707 5.84951)
(3.11885e-15 -1.71236 -0.0727526)
(3.16352e-15 -5.8055 -0.669253)
(2.36388e-15 -6.45842 -1.07829)
(1.37996e-15 -5.70906 -1.70273)
(6.11543e-16 -3.64966 -2.15526)
(1.89006e-16 -0.989362 -2.71895)
(2.9904e-17 0.739999 -3.64546)
(-8.58766e-17 1.03937 -3.9899)
(-7.74322e-17 0.739569 -3.87885)
(-5.22679e-16 0.976314 -2.87075)
(1.91963e-15 -1.77804 1.16092)
(2.1283e-15 -2.16154 1.4498)
(2.6444e-15 -0.10596 2.14075)
(3.82289e-15 1.43043 4.48319)
(4.15966e-15 1.97303 6.1738)
(3.66165e-15 2.84334 7.0709)
(2.5458e-15 4.25542 7.31487)
(1.32856e-15 5.69214 7.05159)
(7.72116e-16 5.4728 5.78735)
(1.83895e-15 -0.223623 1.81928)
(3.15642e-15 -5.47872 -0.882843)
(2.41023e-15 -6.26431 -0.66262)
(1.43084e-15 -5.5045 -1.2766)
(6.73998e-16 -3.44581 -1.88279)
(2.70027e-16 -0.666785 -2.85893)
(9.75458e-17 0.997195 -4.17615)
(-1.70364e-17 1.0989 -4.79595)
(-6.36602e-17 0.485024 -4.5772)
(-2.31122e-16 0.515712 -3.38161)
(1.95275e-15 -1.87868 1.28998)
(2.1279e-15 -2.35672 1.74267)
(2.77191e-15 -0.831061 2.66601)
(3.8375e-15 0.660324 5.12774)
(3.38749e-15 1.51417 5.99431)
(2.03488e-15 2.72391 5.76929)
(3.8758e-16 4.35662 5.01199)
(-8.67987e-16 5.96159 4.33317)
(-1.0743e-15 6.23564 3.8291)
(4.95037e-16 1.32719 2.5061)
(3.08463e-15 -4.97227 -0.896833)
(2.43427e-15 -6.25693 -0.0673237)
(1.4694e-15 -5.27436 -0.65608)
(7.19573e-16 -3.08869 -1.40794)
(3.54078e-16 -0.0292447 -2.88163)
(1.60522e-16 1.43851 -4.62028)
(4.35117e-17 1.21251 -5.64658)
(8.77279e-18 0.181328 -5.40002)
(-3.62593e-16 -0.118199 -4.06512)
(2.01156e-15 -2.01422 1.29619)
(2.13661e-15 -2.62586 1.93933)
(2.70023e-15 -1.5198 2.87974)
(3.15419e-15 0.196954 4.9061)
(1.83591e-15 1.62106 4.83378)
(-5.01408e-17 3.18623 3.63679)
(-1.68934e-15 4.79184 2.38282)
(-2.44475e-15 6.14164 1.69104)
(-2.05206e-15 6.28205 1.60568)
(-1.27581e-16 1.8975 2.33473)
(2.84295e-15 -4.57753 0.253603)
(2.42967e-15 -6.30398 0.542396)
(1.48086e-15 -5.0029 0.22726)
(7.3526e-16 -2.5644 -0.735145)
(4.16352e-16 0.81777 -2.87741)
(2.40948e-17 2.0633 -4.7543)
(-2.3755e-16 1.39879 -5.99524)
(-1.17357e-16 -0.208841 -5.97671)
(-4.38216e-16 -0.532567 -4.86158)
(2.06734e-15 -2.18479 1.20973)
(2.18079e-15 -2.9321 2.02721)
(2.53464e-15 -2.08004 2.84074)
(2.20927e-15 -0.0194477 4.10471)
(1.66106e-16 1.97686 3.31141)
(-1.65368e-15 3.72186 1.96048)
(-2.78378e-15 5.14859 1.1002)
(-2.81696e-15 6.24172 0.9339)
(-1.82268e-15 6.0375 1.15997)
(1.74461e-16 1.74884 2.74073)
(2.43652e-15 -4.31026 2.1675)
(2.40424e-15 -6.19017 1.10613)
(1.45464e-15 -4.79254 1.39555)
(7.04538e-16 -1.87041 0.135411)
(-8.57749e-17 1.63457 -2.59061)
(-9.52035e-16 2.62252 -3.05641)
(-1.73262e-15 1.81692 -3.56143)
(-1.23155e-15 -0.133885 -4.47992)
(-8.35766e-16 -1.44161 -4.91739)
(2.06947e-15 -2.38076 1.238)
(2.26708e-15 -3.23901 2.1153)
(2.40962e-15 -2.43873 2.74526)
(1.47423e-15 0.039593 3.28003)
(-8.78063e-16 2.4157 2.12282)
(-2.42841e-15 4.08258 1.11992)
(-2.92245e-15 5.21866 0.986802)
(-2.51315e-15 6.11345 1.34749)
(-1.09278e-15 5.62688 2.1467)
(8.68193e-16 1.38567 4.03757)
(2.14184e-15 -4.01058 3.8108)
(2.30828e-15 -5.95252 2.20918)
(1.41688e-15 -4.6855 2.69236)
(5.17115e-16 -0.896853 1.05138)
(-1.41258e-15 2.15513 0.569396)
(-2.68297e-15 2.37612 2.53028)
(-3.91025e-15 2.15111 3.00155)
(-2.99268e-15 1.32356 1.79991)
(4.05758e-16 0.480097 -1.77555)
(2.11675e-15 -2.56916 1.74357)
(2.39947e-15 -3.49339 2.3901)
(2.35858e-15 -2.60508 2.74913)
(8.85765e-16 0.331872 2.53861)
(-1.55727e-15 2.79553 1.26758)
(-2.72558e-15 4.19542 0.858953)
(-2.63831e-15 5.05991 1.28298)
(-2.14235e-15 5.77497 1.9343)
(-4.28933e-16 5.0171 3.4368)
(1.46077e-15 0.994156 5.57789)
(2.08709e-15 -3.70283 5.34394)
(2.15703e-15 -5.6851 4.01811)
(1.21687e-15 -4.43386 3.78628)
(-2.55479e-16 -0.631305 3.21764)
(-1.53834e-15 1.11802 6.86379)
(-2.70681e-15 1.75853 8.3993)
(-3.79586e-15 1.53498 8.9642)
(-3.90371e-15 -1.30962 10.0674)
(-3.98562e-15 -5.76562 11.7469)
(2.34401e-15 -2.66768 3.08997)
(2.59313e-15 -3.60809 3.07336)
(2.36179e-15 -2.54247 2.97245)
(2.15755e-16 0.736076 1.84378)
(-2.3943e-15 3.06755 0.610324)
(-2.83451e-15 4.08252 0.971299)
(-2.35317e-15 4.78504 1.59838)
(-1.85618e-15 5.25991 2.5195)
(1.41147e-16 4.21827 4.73579)
(1.90193e-15 0.54277 6.94315)
(1.70045e-15 -3.45209 6.72168)
(1.62159e-15 -5.31875 5.69156)
(1.17657e-15 -4.44609 5.30404)
(5.56224e-16 -1.93543 7.9974)
(4.12917e-16 0.0141195 12.107)
(-3.46436e-16 1.41657 12.1703)
(-2.45494e-15 1.5598 12.5302)
(-4.40688e-15 0.362001 13.0687)
(-4.33741e-15 -2.08765 11.878)
(2.67002e-15 -2.58257 5.19316)
(2.76788e-15 -3.42277 4.22146)
(2.23803e-15 -2.1499 3.41295)
(-8.88413e-16 1.18442 1.0682)
(-3.08376e-15 3.1857 0.403633)
(-2.77955e-15 3.80012 1.26711)
(-2.13174e-15 4.43574 1.86243)
(-1.56392e-15 4.54066 3.25546)
(6.80955e-16 3.30291 6.08802)
(2.68905e-15 0.176104 8.06781)
(2.57977e-15 -3.18986 7.68239)
(1.94097e-15 -5.11026 6.96115)
(8.29186e-16 -5.14855 7.36672)
(5.13172e-16 -3.33869 10.8074)
(7.647e-16 -0.409778 12.2378)
(4.05304e-15 1.71169 10.5695)
(2.4925e-15 1.46572 9.35364)
(4.10311e-16 -0.121158 7.22469)
(-1.34919e-15 -1.67579 4.92784)
(3.32031e-15 -2.27218 8.36458)
(3.03784e-15 -2.92067 5.92961)
(1.42346e-15 -1.27252 3.52578)
(-2.50805e-15 1.79069 0.168618)
(-3.07923e-15 3.04347 0.764201)
(-2.66675e-15 3.49093 1.47961)
(-1.86947e-15 3.97936 2.14341)
(-1.18417e-15 3.59333 4.20681)
(1.06408e-15 2.3114 7.45645)
(2.57332e-15 -0.144329 9.29891)
(2.59493e-15 -2.99935 9.0633)
(1.76655e-15 -5.20476 8.75944)
(7.75294e-16 -6.01338 9.87445)
(1.09006e-15 -4.07593 12.6311)
(1.68162e-15 0.0998562 12.286)
(1.9108e-15 2.54787 10.3569)
(2.51745e-15 2.65621 10.8141)
(2.82092e-15 2.35303 9.46423)
(7.48733e-15 2.31806 5.44128)
(2.75981e-15 -1.61311 10.8675)
(1.50366e-15 -1.48002 5.58542)
(-1.24403e-15 0.342811 1.88167)
(-3.1429e-15 2.05759 0.209656)
(-2.70743e-15 2.75165 1.15581)
(-2.67095e-15 3.22745 1.54738)
(-2.45794e-15 3.3339 2.4968)
(-7.8253e-16 2.44196 5.24664)
(1.30621e-15 1.26097 8.5966)
(2.3114e-15 -0.532655 10.4538)
(2.21594e-15 -3.00021 10.8267)
(1.65479e-15 -5.44996 11.0489)
(9.74555e-16 -6.60906 12.014)
(5.68288e-16 -4.178 12.3931)
(-2.20361e-16 0.564053 8.09213)
(1.82411e-16 2.22912 5.80448)
(1.71483e-15 1.68354 9.10981)
(2.75792e-15 1.98362 12.1831)
(3.16619e-15 3.03497 11.9626)
(-1.98178e-15 -0.00828022 8.08377)
(-2.62701e-15 0.566818 2.30728)
(-3.02757e-15 0.975768 1.01079)
(-2.68514e-15 1.94896 0.855892)
(-2.59337e-15 2.58386 1.22316)
(-2.63343e-15 2.93458 1.597)
(-2.17583e-15 2.4793 2.86227)
(-5.68418e-16 1.18582 6.10204)
(1.15418e-15 0.239241 9.14625)
(1.88595e-15 -1.05369 10.9086)
(1.95398e-15 -3.2617 11.9254)
(1.59267e-15 -5.69869 12.5914)
(8.57872e-16 -6.52836 12.8208)
(-2.0725e-16 -2.78188 10.3525)
(-1.01201e-15 2.46427 4.15983)
(-3.76052e-16 2.39973 2.53629)
(1.34206e-15 -0.139016 2.19241)
(2.49098e-15 1.43917 6.68172)
(2.78267e-15 5.84847 10.7539)
(-3.36657e-15 0.8807 4.94573)
(-2.73512e-15 1.31645 2.33356)
(-2.55354e-15 1.1033 1.64911)
(-2.56201e-15 1.96253 1.03668)
(-2.64182e-15 2.48658 1.22323)
(-2.6623e-15 2.56987 1.62924)
(-2.14977e-15 1.4956 3.0724)
(-6.97602e-16 -0.00277888 6.36545)
(3.96483e-16 -0.648428 8.83107)
(1.02962e-15 -1.66805 10.5905)
(1.32282e-15 -3.67452 11.9233)
(1.10873e-15 -5.79562 12.632)
(2.94974e-16 -5.69932 11.8623)
(-9.17221e-16 -0.660721 7.23937)
(-1.26406e-15 3.68459 2.40142)
(-6.90354e-16 3.17688 2.18299)
(-2.56985e-16 0.493234 -0.754231)
(7.18176e-16 -1.44814 -2.63444)
(-7.49049e-16 -1.34334 -2.8618)
(-2.89529e-15 1.22857 3.54987)
(-2.49404e-15 1.77145 2.30543)
(-2.50001e-15 1.45389 1.63651)
(-2.58064e-15 2.01987 1.08361)
(-2.63715e-15 2.37386 1.24022)
(-2.64534e-15 2.21083 1.58042)
(-2.17703e-15 0.548221 2.93673)
(-1.14823e-15 -1.01275 5.65809)
(-4.95305e-16 -1.4846 7.77376)
(-2.34158e-17 -2.31299 9.62497)
(3.23341e-16 -4.06611 10.9546)
(2.55677e-16 -5.63823 11.3393)
(-4.43212e-16 -4.37502 9.51386)
(-1.48147e-15 1.22543 3.57079)
(-1.35109e-15 4.38791 1.01579)
(-6.10684e-16 3.63008 0.847084)
(-1.7814e-16 1.58184 -0.948623)
(1.00925e-16 1.07226 -2.11718)
(-4.13241e-16 0.145845 -5.06972)
(-2.5698e-15 1.45599 2.72955)
(-2.42471e-15 2.01655 2.14825)
(-2.47032e-15 1.66902 1.61683)
(-2.57118e-15 2.07785 1.14259)
(-2.63416e-15 2.29604 1.22211)
(-2.65006e-15 1.93232 1.45663)
(-2.25795e-15 -0.235642 2.50207)
(-1.54937e-15 -1.83143 4.38748)
(-1.15326e-15 -2.277 6.27837)
(-9.21515e-16 -2.93899 8.11368)
(-6.79866e-16 -4.33751 9.29821)
(-6.30391e-16 -5.19272 9.26114)
(-1.08033e-15 -2.69321 6.57111)
(-1.75886e-15 2.56257 0.685113)
(-1.25956e-15 4.81357 0.0229362)
(-5.60981e-16 3.98156 -0.370765)
(-1.7283e-16 2.05933 -1.4108)
(7.77804e-17 1.03214 -2.35002)
(-1.97104e-16 0.213077 -3.37663)
(-2.36084e-15 1.5509 2.34501)
(-2.41883e-15 2.18178 2.01063)
(-2.46661e-15 1.88222 1.56289)
(-2.56738e-15 2.15011 1.16838)
(-2.62744e-15 2.25823 1.17953)
(-2.65341e-15 1.7778 1.28296)
(-2.36063e-15 -0.773361 1.88132)
(-1.82186e-15 -2.4656 3.08172)
(-1.51421e-15 -3.00132 4.61186)
(-1.47031e-15 -3.52261 6.26469)
(-1.42188e-15 -4.491 7.26221)
(-1.34938e-15 -4.56044 6.91157)
(-1.55463e-15 -0.91708 3.68404)
(-1.80233e-15 3.48109 -0.872893)
(-1.09889e-15 4.93898 -1.03877)
(-4.84075e-16 4.19489 -1.29817)
(-1.31152e-16 2.41321 -1.83347)
(6.37247e-17 1.41204 -2.4157)
(1.051e-16 0.226056 -2.58258)
(-2.26274e-15 1.62903 2.11762)
(-2.43298e-15 2.30577 1.86708)
(-2.456e-15 2.0299 1.52279)
(-2.55657e-15 2.20311 1.19231)
(-2.61892e-15 2.24629 1.11969)
(-2.65668e-15 1.72993 1.07193)
(-2.49046e-15 -1.01775 1.15632)
(-2.0386e-15 -2.90489 1.92686)
(-1.6891e-15 -3.56282 3.04541)
(-1.67768e-15 -4.00262 4.34935)
(-1.81147e-15 -4.53658 5.13097)
(-1.83868e-15 -3.81967 4.62416)
(-1.87794e-15 0.803889 0.974953)
(-1.59346e-15 4.21397 -1.7063)
(-9.36048e-16 5.09009 -1.96172)
(-4.1591e-16 4.29327 -2.0049)
(-1.0593e-16 2.59178 -2.20308)
(7.36916e-17 1.39392 -2.46161)
(4.54153e-16 0.102587 -2.26765)
(-2.21436e-15 1.67863 1.9374)
(-2.43488e-15 2.39248 1.75285)
(-2.44132e-15 2.14016 1.50775)
(-2.54627e-15 2.27016 1.19922)
(-2.61231e-15 2.27414 1.03835)
(-2.6553e-15 1.75848 0.859058)
(-2.5863e-15 -1.36666 0.523196)
(-2.23836e-15 -3.21594 0.951509)
(-1.81213e-15 -3.98502 1.80417)
(-1.66608e-15 -4.36222 2.75386)
(-1.86527e-15 -4.54462 3.33497)
(-2.07828e-15 -3.09174 2.762)
(-2.02619e-15 1.96653 -0.924101)
(-1.36766e-15 4.67215 -2.29112)
(-7.93787e-16 5.1839 -2.55725)
(-3.72995e-16 4.27954 -2.48397)
(-8.32153e-17 2.61875 -2.42353)
(1.20002e-16 1.36713 -2.41315)
(2.96263e-18 -0.0696095 -2.20381)
(-2.18296e-15 1.70987 1.82538)
(-2.42947e-15 2.50467 1.68724)
(-2.43023e-15 2.30759 1.51004)
(-2.53833e-15 2.4359 1.19574)
(-2.60735e-15 2.43466 0.965527)
(-2.65217e-15 2.03216 0.733525)
(-2.62842e-15 -1.6595 0.276059)
(-2.43407e-15 -3.3742 0.146562)
(-2.07539e-15 -4.29378 0.532291)
(-1.74188e-15 -4.64292 0.978843)
(-1.7103e-15 -4.48039 1.23078)
(-1.90081e-15 -2.11045 0.768151)
(-1.82925e-15 2.46929 -1.46472)
(-1.2531e-15 4.89565 -2.62546)
(-7.38165e-16 5.19553 -2.90981)
(-3.39617e-16 4.19217 -2.72222)
(-5.31886e-17 2.56046 -2.48991)
(1.41116e-16 1.33252 -2.28277)
(2.04354e-16 -0.313026 -2.33878)
(-5.24887e-16 4.87399 8.22401)
(-1.42907e-15 15.1284 27.1826)
(-8.93606e-16 18.5495 31.6225)
(-9.38441e-16 17.6972 29.5916)
(-1.08761e-15 16.2276 26.2517)
(-1.76791e-15 14.8777 23.3516)
(-2.03373e-15 13.7136 20.9585)
(-2.09222e-15 12.8762 19.229)
(-2.35904e-15 12.182 17.7631)
(-2.72117e-15 11.5081 16.418)
(-3.18779e-15 10.8266 15.1199)
(-3.735e-15 10.1247 13.8447)
(-4.33522e-15 9.39142 12.5913)
(-4.9267e-15 8.62836 11.3579)
(-5.45202e-15 7.82007 10.1425)
(-6.018e-15 6.97911 8.94089)
(-6.65238e-15 6.0934 7.78527)
(-7.6836e-15 5.24074 6.74813)
(-8.92722e-15 4.31587 5.81989)
(-1.27496e-14 2.49115 3.45529)
(-2.9718e-17 1.75002 1.13516)
(-1.00532e-16 13.0764 23.7417)
(-7.61371e-17 17.4054 30.9572)
(-1.73729e-16 16.7206 29.6071)
(-2.26922e-16 15.1801 26.5204)
(-3.43082e-16 13.8418 23.836)
(-2.50107e-16 12.8686 21.7682)
(-3.42632e-16 12.0836 20.0046)
(-6.08575e-16 11.3452 18.3792)
(-8.32245e-16 10.6004 16.7805)
(-1.08892e-15 9.81724 15.1883)
(-1.36186e-15 9.00246 13.6084)
(-1.70481e-15 8.1581 12.0616)
(-2.26793e-15 7.30221 10.5544)
(-2.96484e-15 6.41309 9.09572)
(-3.81026e-15 5.51485 7.63637)
(-4.77691e-15 4.49062 6.14728)
(-5.67961e-15 3.42226 4.42534)
(-6.46441e-15 1.71768 2.27157)
(-1.28764e-14 -0.062145 -1.57762)
(5.46505e-17 0.916708 0.868536)
(5.56691e-16 12.8451 22.2413)
(2.09357e-16 18.5992 32.2636)
(2.03198e-16 18.7224 32.2278)
(1.73875e-16 17.142 29.1627)
(4.10516e-16 15.6974 26.2704)
(3.82326e-16 14.6066 24.0247)
(3.01144e-16 13.7269 22.1217)
(2.1697e-16 12.8741 20.3035)
(1.5021e-16 11.9789 18.4537)
(1.25077e-16 11.0222 16.5591)
(6.01282e-17 10.012 14.6367)
(7.37368e-18 8.95077 12.7127)
(-1.12461e-16 7.85175 10.7968)
(-2.78265e-16 6.69066 8.90386)
(-4.77746e-16 5.49078 6.99653)
(-7.76356e-16 4.13113 5.0577)
(-1.33723e-15 2.72872 2.87792)
(-2.10001e-15 0.549107 0.269812)
(-6.90595e-15 -1.00537 -3.65306)
(1.4864e-18 2.4696 3.96727)
(-1.24419e-17 13.9206 21.7541)
(-7.4039e-18 19.897 31.9119)
(7.20137e-19 20.212 32.6131)
(-1.21922e-17 18.5799 29.9282)
(4.87142e-16 17.1213 27.3083)
(5.25982e-16 16.0099 25.2617)
(4.6557e-16 15.0382 23.3781)
(4.2752e-16 14.0025 21.4367)
(3.77183e-16 12.8843 19.3779)
(3.93695e-16 11.6842 17.2332)
(4.08613e-16 10.4215 15.0247)
(3.14223e-16 9.08997 12.7713)
(3.53573e-16 7.69116 10.4709)
(2.85065e-16 6.19097 8.13563)
(2.3331e-16 4.62011 5.73027)
(3.45075e-16 2.85229 3.30301)
(3.71976e-16 1.18682 0.71076)
(-9.32832e-16 -1.45882 -2.24325)
(-4.5413e-15 -2.18528 -5.80644)
(9.47199e-19 8.94587 15.2578)
(-1.1636e-17 18.6672 28.8937)
(-1.3545e-17 20.75 32.4127)
(-1.23584e-17 19.657 31.0073)
(-1.51561e-17 17.9939 28.849)
(-4.51685e-17 16.823 27.0453)
(-2.67349e-17 15.6868 25.4011)
(-8.20276e-18 14.4809 23.5012)
(1.09525e-17 13.0613 21.3836)
(2.75842e-17 11.5573 19.108)
(4.27031e-17 9.96061 16.7481)
(6.43543e-17 8.29159 14.2789)
(6.3671e-17 6.50557 11.6759)
(6.75742e-17 4.59495 8.89372)
(2.09103e-16 2.60602 5.96366)
(5.95263e-16 0.595907 2.91357)
(8.87659e-16 -1.29658 -0.0594699)
(8.51642e-17 -2.50913 -2.38563)
(-3.53153e-15 -4.30453 -4.88464)
(-7.57226e-15 -3.2776 -6.47361)
(-3.76438e-19 13.4469 23.5792)
(4.76277e-18 20.1919 33.1329)
(6.62907e-18 17.9396 30.3828)
(5.35453e-18 15.8729 27.2202)
(9.10151e-18 14.5752 25.9731)
(-1.82246e-18 13.718 24.8133)
(-1.50663e-17 12.3676 23.2178)
(-2.0993e-17 10.8398 21.0569)
(-2.76083e-17 9.09456 18.7282)
(-3.16082e-17 7.36693 16.3302)
(-3.56622e-17 5.57983 13.9081)
(-6.27426e-17 3.76373 11.3993)
(-1.366e-16 1.90262 8.81479)
(-1.78763e-16 0.0683017 6.19916)
(2.86676e-17 -1.60837 3.71964)
(2.69475e-16 -2.91281 1.59972)
(-7.12009e-16 -3.6434 -0.0446998)
(-3.57519e-15 -3.42594 -0.794166)
(-6.05101e-15 -1.71383 0.400503)
(-4.11032e-15 0.566847 2.66478)
(8.97581e-20 13.6485 24.2738)
(-1.79282e-18 17.2781 30.054)
(-2.2922e-18 14.4345 26.2878)
(-2.3639e-18 13.2672 24.263)
(-1.80187e-18 12.127 23.2168)
(6.33574e-18 11.0735 21.7883)
(9.97228e-18 9.57314 20.0443)
(1.12916e-17 7.99017 17.8791)
(1.61654e-17 6.26453 15.5899)
(2.59349e-17 4.56153 13.2158)
(3.59845e-17 2.83834 10.8313)
(3.25391e-17 1.18755 8.50205)
(5.96122e-18 -0.28279 6.40114)
(-2.20324e-17 -1.34281 4.78309)
(-1.95282e-17 -1.665 4.07051)
(-3.32802e-17 -0.831601 4.88755)
(-1.68627e-16 1.45979 7.71362)
(-3.2069e-16 4.90037 11.9217)
(-1.21545e-16 7.9048 15.0056)
(3.14826e-16 6.21715 12.2438)
(1.78651e-20 11.697 20.7546)
(5.77816e-19 16.6737 29.1795)
(6.99735e-19 14.7923 26.184)
(7.36089e-19 13.3286 23.0121)
(9.38877e-20 11.9078 21.1204)
(-2.93946e-18 10.9814 19.3285)
(-4.41031e-18 9.7916 17.6742)
(-5.49213e-18 8.70919 15.7633)
(-6.58775e-18 7.51036 13.7772)
(-6.68133e-18 6.38028 11.6797)
(-5.96787e-18 5.30022 9.6106)
(-5.33206e-18 4.43625 7.7695)
(-2.13822e-18 3.99493 6.57237)
(9.53532e-18 4.21859 6.47184)
(2.82783e-17 5.10013 7.56616)
(4.49514e-17 6.4127 9.61813)
(5.85813e-17 8.04732 12.2427)
(8.85278e-17 9.24006 14.6789)
(1.2669e-16 9.63362 15.307)
(6.71668e-17 6.71594 11.987)
(-9.23029e-21 10.9678 19.3299)
(-1.59529e-19 17.7225 30.289)
(-1.88131e-19 15.8639 27.6529)
(-2.10144e-19 14.2772 23.8719)
(-6.50872e-20 12.8022 21.7879)
(7.80721e-19 12.0992 19.9558)
(1.22621e-18 11.2121 18.4927)
(1.45289e-18 10.5405 16.9891)
(1.63645e-18 9.84532 15.5738)
(1.55623e-18 9.23982 14.1715)
(1.19297e-18 8.68244 12.7827)
(9.54079e-19 8.16627 11.3804)
(1.25595e-18 7.69531 9.99393)
(1.89476e-18 7.28048 8.75684)
(1.68052e-18 7.01864 7.93501)
(-1.46222e-18 6.94965 7.81495)
(-9.71126e-18 7.08395 8.41569)
(-2.41249e-17 7.12342 9.33617)
(-4.2856e-17 6.597 9.54702)
(-4.46266e-17 4.30925 6.7359)
(2.11818e-21 11.3677 19.8884)
(4.14474e-20 18.5316 31.0198)
(5.01956e-20 16.4997 28.5607)
(5.77503e-20 15.015 24.7949)
(2.32901e-20 13.5702 22.8195)
(-1.8649e-19 12.9219 21.0241)
(-3.08601e-19 12.0642 19.5387)
(-3.34384e-19 11.3546 17.9982)
(-3.12756e-19 10.6183 16.5398)
(-2.43636e-19 9.92512 15.1383)
(-1.56716e-19 9.263 13.8023)
(-1.39231e-19 8.62637 12.5237)
(-2.59777e-19 8.0066 11.2787)
(-4.36456e-19 7.39207 10.0479)
(-4.0777e-19 6.76513 8.84071)
(1.52809e-19 6.14554 7.71954)
(1.60742e-18 5.48837 6.79781)
(4.52657e-18 4.83001 5.99139)
(9.77566e-18 3.65437 4.9764)
(1.74197e-17 1.57902 1.42094)
(-3.14244e-22 12.481 21.9413)
(-9.94591e-21 19.3876 31.8363)
(-1.27892e-20 16.7769 29.0585)
(-1.46778e-20 15.5955 25.4278)
(-6.57579e-21 14.1043 23.6899)
(4.10281e-20 13.5473 21.8709)
(7.12224e-20 12.6201 20.398)
(7.23532e-20 11.9083 18.8014)
(5.81798e-20 11.1254 17.2905)
(4.21397e-20 10.3807 15.7822)
(3.66582e-20 9.62989 14.2987)
(4.7575e-20 8.8673 12.8317)
(6.23444e-20 8.07822 11.3804)
(4.21586e-20 7.25986 9.93763)
(-5.61632e-20 6.38488 8.50123)
(-2.4304e-19 5.4689 7.0284)
(-5.1949e-19 4.39637 5.50795)
(-1.03074e-18 3.2586 3.75396)
(-2.4491e-18 1.38396 1.5747)
(-1.65098e-18 -0.173637 -2.09106)
(2.03824e-23 14.2317 25.4746)
(2.17491e-21 20.1565 32.4697)
(2.94238e-21 16.7486 29.4126)
(3.28802e-21 16.2575 26.1851)
(1.55293e-21 14.6438 24.7899)
(-8.06412e-21 14.3002 22.9142)
(-1.43494e-20 13.2838 21.517)
(-1.37763e-20 12.6906 19.919)
(-1.04404e-20 11.9341 18.4642)
(-9.6801e-21 11.246 16.9272)
(-1.31161e-20 10.4716 15.3273)
(-1.53974e-20 9.60618 13.607)
(-5.93671e-21 8.61728 11.7783)
(2.36951e-20 7.52064 9.86095)
(6.87192e-20 6.30523 7.89634)
(1.08442e-19 5.01307 5.86494)
(1.24577e-19 3.51718 3.77048)
(1.11584e-19 1.96421 1.34197)
(2.21683e-19 -0.471686 -1.33647)
(-3.2807e-18 -1.68981 -5.09842)
(7.8752e-25 15.9096 29.341)
(-4.38373e-22 20.1816 32.1723)
(-5.83445e-22 16.2998 29.6129)
(-5.99398e-22 16.674 26.9354)
(-2.5345e-22 14.7488 25.891)
(1.35392e-21 14.7073 23.98)
(2.22323e-21 13.514 22.807)
(2.32321e-21 13.1384 21.3005)
(2.96641e-21 12.3539 20.0248)
(3.24982e-21 11.7127 18.4723)
(-1.51452e-21 10.7744 16.6896)
(-1.53757e-20 9.64519 14.5612)
(-3.54316e-20 8.29413 12.2231)
(-5.36033e-20 6.81317 9.75144)
(-6.4515e-20 5.20557 7.20908)
(-5.8505e-20 3.51198 4.58336)
(-9.34874e-21 1.63158 1.93989)
(8.5867e-20 -0.162986 -1.19756)
(4.75735e-19 -2.7195 -3.88931)
(-1.81609e-18 -3.07189 -7.67077)
(5.62494e-25 16.5786 31.454)
(8.23617e-23 19.1074 30.5215)
(1.09143e-22 15.4706 29.2607)
(1.17061e-22 16.2115 26.853)
(-4.0447e-23 13.9529 25.9752)
(-5.76279e-22 13.9858 24.0913)
(-6.25625e-22 12.5587 23.1323)
(6.98217e-22 12.22 21.7469)
(1.98905e-21 11.2067 20.6133)
(-3.36194e-21 10.3654 18.9195)
(-2.32969e-20 8.9534 16.7539)
(-5.19911e-20 7.36845 14.0587)
(-6.49093e-20 5.61994 11.2395)
(-5.08447e-20 3.86188 8.33255)
(-3.84787e-20 2.06035 5.33325)
(-3.64474e-20 0.222857 2.4017)
(4.84103e-20 -1.20047 0.100525)
(2.32282e-19 -2.37005 -2.20771)
(2.30103e-19 -4.83237 -5.62056)
(-4.57316e-19 -3.52892 -6.39001)
(-1.15364e-24 16.0253 30.9157)
(-1.17884e-23 18.0373 28.7993)
(1.83682e-24 14.6568 28.1604)
(1.57776e-23 15.266 25.6523)
(-5.96791e-23 12.9655 24.7307)
(-2.74451e-22 12.7624 22.8633)
(-1.85825e-22 11.3056 21.816)
(1.07877e-21 10.6754 20.4505)
(1.66746e-21 9.52824 19.2261)
(-6.44403e-21 8.39746 17.4992)
(-3.04553e-20 6.85381 15.3144)
(-5.86802e-20 5.25642 12.8132)
(-6.17682e-20 3.67265 10.301)
(-2.59505e-20 2.091 7.64096)
(3.88859e-20 0.450415 4.8102)
(1.31746e-19 -1.17757 1.97428)
(2.47632e-19 -2.71615 -0.813262)
(3.18462e-19 -3.21793 -2.28856)
(2.6155e-19 -1.73186 -0.683963)
(9.06542e-20 0.77788 3.02629)
(1.35284e-25 15.2639 30.0578)
(1.97547e-24 17.999 27.9043)
(8.78097e-24 14.0672 27.2623)
(1.23191e-23 15.1177 24.4422)
(-5.47562e-23 12.5892 23.5417)
(-2.62002e-22 12.5146 21.445)
(-4.34865e-22 10.9998 20.2145)
(-1.08465e-22 10.337 18.633)
(4.17593e-22 9.24295 17.299)
(-1.59347e-21 8.29948 15.7597)
(-9.39134e-21 7.20342 14.098)
(-2.00686e-20 6.18254 12.3375)
(-2.14319e-20 5.22412 10.5895)
(4.75542e-21 4.23951 8.6431)
(7.65785e-20 3.12229 6.31393)
(1.84097e-19 2.22789 4.2105)
(2.564e-19 2.29318 3.76229)
(2.40602e-19 3.41124 5.26231)
(2.59309e-19 4.72107 6.66842)
(3.042e-19 3.82253 7.03222)
(-1.71332e-25 14.8884 30.2926)
(1.90824e-24 18.3523 27.6245)
(8.64936e-24 13.8864 27.2718)
(5.82361e-24 15.3543 24.3471)
(-5.28467e-23 12.8485 23.4688)
(-2.17346e-22 12.8664 21.3934)
(-4.60077e-22 11.5486 20.0825)
(-6.01346e-22 10.9831 18.4654)
(-2.21569e-22 10.124 17.0912)
(1.33641e-21 9.47613 15.7173)
(4.32842e-21 8.8209 14.4384)
(7.39474e-21 8.23133 13.151)
(7.84396e-21 7.63809 11.8272)
(4.32805e-21 7.05233 10.4366)
(-9.63354e-22 6.4199 8.92742)
(-2.72516e-21 5.68739 7.13937)
(7.99458e-21 4.57829 4.89042)
(1.20406e-20 3.50635 2.99575)
(1.05284e-19 1.89968 1.22136)
(2.83598e-19 0.602226 -0.631795)
(9.92394e-26 14.117 30.6194)
(1.76185e-24 18.2888 27.5496)
(4.86132e-24 13.4389 27.4776)
(-6.74067e-24 14.5711 24.9784)
(-7.18026e-23 12.4469 24.0211)
(-2.09761e-22 12.0994 22.3335)
(-3.32218e-22 11.0304 21.0688)
(-2.19267e-22 10.3896 19.6832)
(3.36249e-22 9.66176 18.4174)
(1.25468e-21 9.05552 17.1581)
(2.03695e-21 8.46284 15.9307)
(1.99076e-21 7.90219 14.6884)
(9.23737e-22 7.33647 13.402)
(5.68985e-22 6.72298 11.9863)
(6.21601e-21 5.92132 10.2243)
(2.34212e-20 4.70465 7.72198)
(5.46502e-20 2.8177 4.27675)
(5.53362e-20 0.520725 -0.254979)
(6.58163e-20 -2.01134 -3.44373)
(2.94329e-19 -2.13652 -5.80308)
(1.56466e-25 11.2559 28.6633)
(9.72248e-25 17.1279 25.1544)
(4.11986e-25 12.1055 25.5404)
(-1.01425e-23 12.765 23.8328)
(-4.52525e-23 11.0408 23.0873)
(-1.02854e-22 10.3892 22.0019)
(-1.23157e-22 9.41476 21.0866)
(7.442e-24 8.65928 20.1362)
(3.45459e-22 7.90954 19.2198)
(7.22671e-22 7.23787 18.3016)
(7.25139e-22 6.60795 17.3831)
(-1.01367e-23 6.02406 16.45)
(-1.07398e-21 5.46676 15.4769)
(2.29916e-23 4.88752 14.3679)
(9.18818e-21 4.15256 12.8695)
(3.40171e-20 3.02115 10.5225)
(7.51124e-20 1.30813 6.86099)
(1.17476e-19 -0.830187 2.05565)
(1.40735e-19 -2.63743 -2.40661)
(1.36461e-19 -2.19608 -4.00676)
(8.17732e-26 2.6321 17.087)
(-1.27573e-25 8.0445 13.7367)
(-1.50054e-24 5.17494 14.5898)
(-3.23199e-24 4.96762 14.2104)
(-1.2369e-24 4.03874 14.1808)
(7.04091e-24 3.46266 14.019)
(1.32175e-23 2.87646 13.8724)
(-1.57579e-24 2.39228 13.6904)
(-4.52528e-23 1.96826 13.4869)
(-9.33583e-23 1.61711 13.2583)
(-1.11943e-22 1.33645 13.0084)
(-1.45385e-22 1.13009 12.7399)
(-4.33732e-22 1.00012 12.4597)
(-1.44892e-21 0.9619 12.1762)
(-3.62451e-21 1.04158 11.8947)
(-6.60711e-21 1.21583 11.6209)
(-8.61543e-21 1.52473 11.2403)
(-7.55858e-21 2.264 10.3309)
(-3.99605e-21 2.56891 8.83245)
(-1.08851e-21 -0.147994 6.64692)
(-7.64955e-26 -2.63215 17.0871)
(1.39315e-25 -8.04453 13.7368)
(1.45621e-24 -5.17496 14.59)
(3.01813e-24 -4.96761 14.2106)
(8.48321e-25 -4.0387 14.1809)
(-7.45949e-24 -3.46258 14.0192)
(-1.3804e-23 -2.87635 13.8725)
(-1.92856e-25 -2.39213 13.6906)
(4.06697e-23 -1.96809 13.4871)
(8.50529e-23 -1.61691 13.2585)
(1.00593e-22 -1.33622 13.0087)
(1.31579e-22 -1.12981 12.7402)
(4.1327e-22 -0.999799 12.46)
(1.40717e-21 -0.961544 12.1766)
(3.53626e-21 -1.04127 11.8953)
(6.4527e-21 -1.21567 11.6218)
(8.41352e-21 -1.52486 11.2412)
(7.3788e-21 -2.26443 10.3316)
(3.90212e-21 -2.56948 8.83306)
(1.06671e-21 0.147792 6.64771)
(-1.51743e-25 -11.2561 28.6636)
(-9.28216e-25 -17.128 25.1548)
(-3.50155e-25 -12.1056 25.5408)
(9.98767e-24 -12.765 23.8333)
(4.42906e-23 -11.0408 23.0878)
(1.00704e-22 -10.3892 22.0024)
(1.21837e-22 -9.41473 21.0872)
(-1.32445e-24 -8.6592 20.1368)
(-3.23624e-22 -7.90939 19.2204)
(-6.84846e-22 -7.23765 18.3022)
(-6.8668e-22 -6.60767 17.3838)
(2.47462e-23 -6.02376 16.4508)
(1.05546e-21 -5.46647 15.4777)
(-2.37595e-23 -4.88708 14.3687)
(-8.99073e-21 -4.15144 12.8693)
(-3.32669e-20 -3.01853 10.5198)
(-7.34138e-20 -1.30394 6.85528)
(-1.14759e-19 0.834276 2.04998)
(-1.37485e-19 2.63908 -2.4081)
(-1.33441e-19 2.19599 -4.00602)
(-1.02792e-25 -14.1174 30.6201)
(-1.75585e-24 -18.2892 27.5503)
(-4.69817e-24 -13.4393 27.4783)
(7.22757e-24 -14.5715 24.9792)
(7.21636e-23 -12.4474 24.0219)
(2.08838e-22 -12.0999 22.3344)
(3.31314e-22 -11.031 21.0698)
(2.27972e-22 -10.3903 19.6842)
(-2.99749e-22 -9.66252 18.4184)
(-1.17542e-21 -9.05629 17.1591)
(-1.92077e-21 -8.46361 15.9316)
(-1.86952e-21 -7.90299 14.6894)
(-8.3525e-22 -7.33744 13.4032)
(-5.06136e-22 -6.72417 11.9878)
(-6.04336e-21 -5.92223 10.2255)
(-2.28651e-20 -4.7048 7.72179)
(-5.33783e-20 -2.81565 4.27397)
(-5.39973e-20 -0.517991 -0.258738)
(-6.39906e-20 2.01519 -3.4471)
(-2.87813e-19 2.13999 -5.80981)
(1.58498e-25 -14.8883 30.2928)
(-1.91234e-24 -18.3533 27.6251)
(-8.54256e-24 -13.8866 27.2725)
(-4.99628e-24 -15.3553 24.3474)
(5.48026e-23 -12.8493 23.4693)