/*--------------------------------*- C++ -*----------------------------------*\
| =========                 |                                                 |
| \\      /  F ield         | OpenFOAM: The Open Source CFD Toolbox           |
|  \\    /   O peration     | Version:  4.1                                   |
|   \\  /    A nd           | Web:      www.OpenFOAM.org                      |
|    \\/     M anipulation  |                                                 |
\*---------------------------------------------------------------------------*/
FoamFile
{
    version     2.0;
    format      ascii;
    class       volScalarField;
    location    "13";
    object      p;
}
// * * * * * * * * * * * * * * * * * * * * * * * * * * * * * * * * * * * * * //

dimensions      [0 2 -2 0 0 0 0];

internalField   nonuniform List<scalar> 
1280
(
-8.02947
-1.03636
-1.7429
-3.28067
-2.11081
-2.16703
-2.60081
-2.52825
-1.95936
-2.01323
-2.45995
-1.90028
-1.90887
-2.48697
-2.0275
-1.94025
-2.7028
-2.39855
-2.55198
-4.69529
-2.95033
2.1365
7.85399
10.1918
12.0903
16.3242
12.392
26.3223
27.9391
30.6984
33.1048
35.4507
37.965
40.4304
43.0083
45.3786
48.2266
50.1196
55.0131
53.6551
11.4363
13.541
13.3978
13.7654
12.7697
13.5542
13.6243
13.9051
12.9266
12.474
12.4467
12.2557
11.2177
9.3599
9.04595
15.2222
-5.64268
-12.7565
-15.5367
-11.5593
-25.9983
-19.3539
-15.5657
-11.3886
-7.50281
-3.82044
-0.390636
2.75182
5.42827
7.35275
9.37195
11.0141
8.15509
24.4568
31.5796
25.493
15.6053
-4.79277
-21.6952
-29.1344
-33.2465
-21.278
-16.6595
-16.905
-12.3659
-9.86161
-11.1363
-8.04773
-7.13636
-8.192
-6.09922
-5.61649
-6.47769
-6.33791
-4.90388
-4.62687
-6.68226
-3.533
-1.90923
-14.3672
22834.1
-4531.82
-5875.45
-240.606
-321.291
40.2464
27.8137
97.1168
63.3209
28.3015
-10.3241
-25.5866
-12.4594
-5.5188
-2.19427
-2.83991
-3.97897
-4.28627
-5.73165
-13515.7
-962.844
-2317.1
-353.374
-309.092
-45.9863
-35.9397
-60.2382
-49.3723
-48.3718
-43.0795
-30.9798
-4.0069
-2.1674
-0.457741
-2.02434
-2.73365
-2.56918
-3.54714
314.171
-2085.21
376.997
-471.209
-226.592
-36.8283
-23.0084
2.32241
1.30731
-23.8387
-42.5195
-28.2943
-0.409862
-0.662902
0.274939
-1.60628
-1.79975
-1.24686
-1.53546
-3302.39
-1974.21
-626.93
-117.694
-178.795
-49.386
-33.4786
-23.1363
-22.2598
-39.8892
-46.9599
-34.691
-4.3217
-1.73581
-0.0476316
-2.22081
-2.68792
-1.82871
-2.09434
-861.411
-1345.33
-158.665
44.0722
-133.494
-53.715
-29.399
-8.80698
-8.71681
-31.7755
-44.5401
-35.7267
-5.05571
-1.20796
-0.454256
-2.91827
-3.42577
-1.57895
-2.25467
-1021.15
-1166.94
46.3052
-3.19768
-129.383
-79.0827
-31.197
-7.86168
-8.67602
-30.5153
-42.7418
-34.4768
-3.75716
1.54413
-0.76622
-4.03189
-4.85527
-0.748669
-1.95783
-283.339
-725.376
173.049
-86.6918
-170.398
-106.671
-25.3747
2.85446
1.27765
-22.4424
-37.6807
-31.5133
-2.33929
6.17127
0.131528
-5.28726
-5.59922
0.313394
-3.42839
-84.3835
-477.953
298.191
-134.499
-204.722
-142.903
-12.0438
17.9645
11.08
-14.9502
-31.9769
-27.0939
-0.869735
10.1316
2.08799
-6.97544
-5.94682
2.24621
-2.61304
145.554
-284.465
460.856
-144.362
-202.887
-127.102
9.53221
40.6303
24.8281
-5.36081
-24.5354
-21.8347
0.0629544
10.5421
4.0639
-6.28143
-4.8596
6.20904
25.2166
210.759
-169.493
587.174
-72.8974
-163.401
-92.1055
29.9187
58.1284
37.5934
3.98371
-17.069
-16.0645
0.0845816
8.41243
5.81181
-2.37227
3.30493
22.0136
17.8035
218.498
-162.873
591.913
-72.9726
-156.962
-79.2605
37.4918
62.9905
41.5819
11.4351
-10.5459
-9.58601
-0.472225
5.31486
3.91258
-4.84136
3.9448
33.2401
24.0092
170.688
-274.394
469.052
-161.266
-185.209
-93.884
30.9713
55.417
33.3295
15.3271
-1.37669
-4.14483
-1.842
2.28596
-0.0142205
-6.09465
4.88283
33.5839
12.9455
-34.1782
-463.891
278.641
-221.552
-216.603
-131.939
10.5088
36.5494
22.4509
17.6606
11.481
3.29472
-0.851394
-1.64216
-6.77973
-14.9659
-5.43985
10.6529
-12.3229
-233.806
-757.015
125.835
-200.488
-207.376
-134.376
-4.93152
20.9813
16.7607
18.9825
19.391
11.3359
3.65623
-3.85336
-15.1449
-21.2599
-10.3641
3.60739
0.425589
-957.007
-1145.12
26.9642
-135.484
-164.093
-98.8016
-10.726
13.9377
13.8335
20.5736
21.6808
13.2318
4.43399
-6.82081
-20.3672
-20.1062
-8.41336
3.28778
2.37001
-760.211
-1262.34
-133.791
4.08053
-112.541
-49.8536
-14.3721
9.49827
10.3832
20.3417
22.3629
14.6753
5.79311
-8.71838
-22.5431
-22.7138
-9.82036
0.117436
-0.241887
-3130.15
-2134.39
-666.092
70.1796
-84.7542
-30.0632
-14.3657
8.19626
5.26002
16.3866
18.3159
10.8199
0.836854
-14.4717
-22.7281
-22.6452
-7.56942
-0.276868
-0.342139
206.556
-2007.19
56.3661
-423.818
-130.072
-5.88711
-26.6277
7.69393
-2.53919
6.98314
14.6108
12.2138
5.86262
-9.51651
-19.4734
-18.942
-4.60446
-0.276708
-0.544534
-12848.7
-483.101
-2461.43
-612.262
-264.996
-42.3428
-15.5329
4.66085
-6.4759
-3.11842
-1.38003
-4.49701
-10.8824
-19.1024
-21.0572
-20.6663
-6.26484
-2.57257
-2.82751
20799.2
-3901.26
-5159.4
-119.327
-172.305
66.6681
-27.8439
-9.10877
0.224601
5.75447
24.0075
35.4634
28.8548
12.6564
-4.34846
-11.4129
-10.4452
-5.54157
-5.66538
72.3424
71.5321
70.9594
70.1912
69.3188
68.2832
67.1835
66.4106
65.8372
65.3096
64.9385
64.6615
64.5047
64.4457
64.5114
64.6621
64.9426
65.3045
65.808
66.3806
61.9407
62.1854
62.2594
62.3633
62.468
62.5105
62.5504
62.5195
62.4923
62.4398
62.3829
62.3114
62.2482
62.1704
62.1143
62.0378
62.0013
61.9318
61.8954
61.8464
66.6206
66.4276
66.3565
66.2123
66.109
65.9837
65.8759
65.7639
65.6626
65.557
65.4642
65.3661
65.2829
65.1913
65.1198
65.0308
64.9736
64.876
64.8494
64.7143
65.639
65.6068
65.5955
65.5622
65.5489
65.5125
65.4902
65.4513
65.4215
65.3802
65.3454
65.3011
65.2651
65.2173
65.1841
65.1321
65.1061
65.0482
65.0347
64.9658
66.9542
66.8665
66.8409
66.7734
66.7363
66.6777
66.6355
66.5815
66.5371
66.4851
66.4402
66.3885
66.3449
66.2914
66.2512
66.1934
66.1602
66.0939
66.0732
65.9885
67.3173
67.2565
67.2416
67.1928
67.1693
67.126
67.0973
67.057
67.0253
66.9863
66.9533
66.9141
66.8817
66.8405
66.8109
66.7653
66.7419
66.688
66.6759
66.6073
68.0563
67.9883
67.9703
67.9174
67.8905
67.8445
67.8129
67.7709
67.737
67.697
67.6623
67.6228
67.589
67.5481
67.5175
67.4725
67.4482
67.3953
67.3827
67.3152
68.6108
68.5496
68.5338
68.4857
68.4616
68.4197
68.3912
68.3529
68.3219
68.2856
68.2536
68.2178
68.1865
68.1494
68.121
68.08
68.0576
68.0087
67.9975
67.9349
69.2114
69.151
69.1349
69.0877
69.0636
69.0226
68.9943
68.9569
68.9263
68.8911
68.8595
68.825
68.794
68.7586
68.7302
68.6911
68.6687
68.622
68.6107
68.5504
69.7617
69.7045
69.6891
69.6443
69.6213
69.5824
69.5553
69.5199
69.4906
69.4573
69.4268
69.3945
69.3644
69.3312
69.3035
69.267
69.245
69.201
69.1898
69.1324
70.3016
70.2467
70.2316
70.1885
70.1661
70.1287
70.1024
70.0685
70.0399
70.0082
69.9785
69.9478
69.9182
69.887
69.8595
69.8253
69.8032
69.7618
69.7503
69.6954
70.8147
70.7625
70.7478
70.7067
70.6851
70.6494
70.6242
70.5918
70.5643
70.5341
70.5054
70.4765
70.4475
70.4185
70.3912
70.3596
70.3374
70.2987
70.2869
70.2348
71.3078
71.2581
71.2436
71.2044
71.1835
71.1493
71.125
71.094
71.0676
71.0388
71.011
70.9837
70.9555
70.9285
70.9014
70.8723
70.8498
70.814
70.8018
70.7524
71.7798
71.7327
71.7184
71.6811
71.6608
71.6282
71.6048
71.5751
71.5496
71.5222
71.4953
71.4695
71.4418
71.4168
71.3897
71.3632
71.3402
71.3075
71.2945
71.2479
72.2306
72.1866
72.1728
72.1377
72.1185
72.0875
72.0653
72.0372
72.0129
71.9869
71.9612
71.9367
71.91
71.8867
71.8596
71.8359
71.8118
71.7825
71.7683
71.7248
72.6492
72.6086
72.5952
72.5626
72.5452
72.5161
72.4958
72.4701
72.4476
72.4239
72.4003
72.3778
72.3532
72.3322
72.3061
72.286
72.2612
72.2363
72.2208
72.1813
73.0439
73.0066
72.992
72.9597
72.9435
72.9151
72.895
72.8708
72.8487
72.8262
72.8039
72.7825
72.7598
72.7406
72.7161
72.7002
72.6746
72.6564
72.6406
72.6064
73.4433
73.416
73.4047
73.3722
73.3593
73.3338
73.3141
73.2916
73.2694
73.2465
73.223
73.1991
73.174
73.1502
73.1219
73.1018
73.0677
73.0526
73.0264
72.9888
73.7173
73.7083
73.7233
73.7027
73.7029
73.6956
73.6909
73.6857
73.68
73.6736
73.666
73.6565
73.6445
73.6298
73.6094
73.5885
73.55
73.5287
73.4567
73.3998
73.6827
73.6244
73.6625
73.6732
73.6908
73.7085
73.7274
73.7481
73.7707
73.7958
73.8236
73.8547
73.8894
73.9283
73.9718
74.0208
74.0735
74.1422
74.1834
74.3466
703.022
620.371
571.188
514.907
465.823
418.429
374.333
332.653
293.407
256.317
221.225
187.943
156.288
126.271
98.0486
70.8896
45.0982
24.6984
0.806481
-36.4515
15.741
-7.09319
0.91316
-10.3691
-13.2162
-19.995
-25.0112
-30.3263
-34.8828
-38.8959
-42.1183
-44.4932
-45.9047
-46.261
-45.4741
-43.2947
-39.8642
-36.6136
-34.1257
-32.8756
-8.5736
-16.3577
-8.67752
-16.3302
-15.0221
-19.1423
-21.2186
-24.6356
-27.7965
-31.3095
-34.8486
-38.5003
-42.1428
-45.6247
-48.6514
-50.7348
-51.1717
-51.0037
-51.4652
-50.2784
-18.1222
-22.3981
-20.1808
-26.7408
-26.2628
-30.8917
-32.636
-35.7745
-38.096
-40.5019
-42.5755
-44.4175
-45.9346
-47.0138
-47.4704
-46.9227
-45.3187
-42.8648
-41.2735
-38.2378
-20.5325
-21.9801
-18.3025
-21.0966
-17.2121
-18.3045
-15.9788
-15.1946
-13.4934
-11.8713
-10.0249
-8.02663
-5.90192
-3.65291
-1.34394
1.0763
3.44612
5.98977
8.10504
11.1178
6.02193
6.90037
10.6417
9.72447
13.92
13.9519
16.9612
18.2379
20.3519
22.0289
23.7009
25.1259
26.2528
26.9937
27.398
27.6963
28.375
29.6955
31.0596
32.3655
28.6922
29.1531
31.1931
29.999
32.5474
31.6823
33.373
33.1777
33.8926
33.8111
33.7843
33.4178
32.9393
32.3352
31.7151
31.1128
30.5505
29.9543
29.7866
28.5901
27.1992
24.3991
25.1333
22.3137
23.0866
20.8443
20.9986
19.4387
18.9715
17.7837
16.9164
15.7189
14.3892
12.616
10.4318
7.86233
5.37578
4.02717
2.75109
-1.27041
-17.4835
-23.044
-23.8735
-28.4612
-30.0419
-34.3308
-36.8286
-40.9417
-44.2216
-48.2081
-51.6666
-55.0523
-57.8334
-60.1113
-61.6657
-62.6056
-62.9081
-62.7526
-63.2938
-62.899
-53.6227
-57.7232
-57.5991
-60.5778
-60.9237
-63.5733
-64.4173
-66.5214
-67.639
-69.0465
-69.7667
-70.1466
-69.9487
-69.3196
-68.3289
-67.0152
-65.6301
-63.8848
-62.3914
-58.9919
-44.3839
-44.2977
-42.5317
-42.8304
-40.9881
-40.8535
-39.3132
-38.5907
-37.2932
-36.1891
-34.8932
-33.5476
-32.1023
-30.5391
-28.8865
-27.0015
-25.026
-22.4255
-20.1141
-16.6906
-16.5909
-14.506
-12.2994
-11.3045
-9.08085
-7.93402
-6.02231
-4.57065
-2.90596
-1.33966
0.232141
1.79442
3.34094
4.90919
6.47139
8.11035
9.68221
11.4332
12.7548
14.7241
3.68357
6.10528
8.13709
9.47901
11.4021
12.5928
14.2052
15.4906
16.8458
18.1173
19.3529
20.5664
21.7609
22.9712
24.191
25.4929
26.7704
28.2236
29.3084
30.8349
24.834
27.057
28.4236
29.6257
31.0324
31.9442
33.1517
34.1061
35.1383
36.1307
37.1477
38.1964
39.2858
40.4078
41.5564
42.7271
43.868
45.0664
45.9047
46.9938
42.3928
44.2717
45.1526
46.4038
47.5885
48.6715
49.976
51.0867
52.1883
53.0129
53.4816
53.4084
52.6912
51.2962
49.5461
47.9262
47.2362
47.2839
47.8484
47.6084
59.2599
59.3826
58.6584
58.7078
58.5577
58.0361
57.329
56.1563
54.6591
52.6392
50.157
47.177
43.7561
40.059
36.5259
33.6911
31.8953
31.0202
31.3001
29.7658
46.9658
44.1667
41.1525
38.4802
35.8782
33.4731
31.4896
29.5591
27.6894
25.7033
23.6459
21.4472
19.1451
16.8226
14.6458
12.8164
11.8472
12.4111
12.7049
8.90482
10.2363
3.61004
-1.51633
-5.40079
-9.2314
-13.2483
-17.5635
-22.2479
-27.094
-31.8981
-36.4031
-40.515
-44.0847
-46.9702
-49.1018
-50.4067
-50.9327
-51.6147
-52.7659
-54.4742
-63.8678
-65.8065
-65.1091
-63.5617
-63.2228
-63.4873
-64.2528
-65.361
-66.6097
-67.8317
-68.8911
-69.763
-70.4123
-70.7965
-70.9625
-70.8718
-70.616
-69.854
-69.1927
-67.3215
-14.7903
-13.3386
-11.874
-10.4992
-11.3468
-13.1472
-16.5406
-20.3304
-24.287
-27.9439
-31.3189
-34.2935
-36.7952
-38.7359
-40.1006
-40.6906
-40.6401
-39.2191
-37.3971
-35.0258
)
;

boundaryField
{
    outletWall
    {
        type            fixedValue;
        value           uniform 0;
    }
    fineWalls
    {
        type            zeroGradient;
    }
    fineFrontAndBack
    {
        type            zeroGradient;
    }
    fineplugLeft
    {
        type            cyclicAMI;
        value           nonuniform List<scalar> 
20
(
63.8355
63.649
62.2675
61.5994
60.8054
60.2108
59.6426
59.1967
58.8193
58.5718
58.3874
58.2576
58.3929
60.9533
57.8914
57.8731
58.1914
58.3383
57.653
57.2839
)
;
    }
    fineplugRight
    {
        type            cyclicAMI;
        value           nonuniform List<scalar> 
20
(
-33.2203
-33.7884
-34.4884
-34.7898
-34.053
-32.8446
-31.0668
-28.8858
-26.3492
-23.5846
-20.4807
-17.2267
-14.6333
-11.8789
-4.20184
-3.97883
-5.27826
-10.4578
-15.01
-17.6591
)
;
    }
    inletOutletLeft
    {
        type            cyclicAMI;
        value           nonuniform List<scalar> 
20
(
63.8355
63.649
62.2675
61.5994
60.8054
60.2108
59.6426
59.1967
58.8193
58.5718
58.3874
58.2576
58.3929
60.9533
57.8914
57.8731
58.1914
58.3383
57.653
57.2839
)
;
    }
    inletLeft
    {
        type            zeroGradient;
    }
    inletWallsLeft
    {
        type            zeroGradient;
    }
    inletFacesLeft
    {
        type            zeroGradient;
    }
    inletOutletRight
    {
        type            cyclicAMI;
        value           nonuniform List<scalar> 
20
(
-33.2203
-33.7884
-34.4884
-34.7898
-34.053
-32.8446
-31.0668
-28.8858
-26.3492
-23.5846
-20.4807
-17.2267
-14.6333
-11.8789
-4.20184
-3.97883
-5.27826
-10.4578
-15.01
-17.6591
)
;
    }
    inletRight
    {
        type            zeroGradient;
    }
    inletWallsRight
    {
        type            zeroGradient;
    }
    inletFacesRight
    {
        type            zeroGradient;
    }
}


// ************************************************************************* //
