/*--------------------------------*- C++ -*----------------------------------*\
| =========                 |                                                 |
| \\      /  F ield         | OpenFOAM: The Open Source CFD Toolbox           |
|  \\    /   O peration     | Version:  4.1                                   |
|   \\  /    A nd           | Web:      www.OpenFOAM.org                      |
|    \\/     M anipulation  |                                                 |
\*---------------------------------------------------------------------------*/
FoamFile
{
    version     2.0;
    format      ascii;
    class       volVectorField;
    location    "13";
    object      U;
}
// * * * * * * * * * * * * * * * * * * * * * * * * * * * * * * * * * * * * * //

dimensions      [0 1 -1 0 0 0 0];

internalField   nonuniform List<vector> 
1280
(
(-2.65532e-18 2.58669 -0.0724335)
(1.9135e-17 1.59573 -0.0343408)
(-2.27005e-19 1.21949 -0.014168)
(-4.10238e-17 1.48778 -0.00153867)
(-9.46025e-17 1.61287 0.13215)
(-1.04733e-16 1.18882 0.14654)
(-1.98316e-17 1.32308 0.168257)
(-1.8695e-16 1.20691 0.18252)
(-1.73779e-17 1.39992 0.0566578)
(3.44173e-16 1.14745 -0.0468609)
(5.93041e-16 1.19073 -0.0702088)
(3.7899e-17 1.45684 -0.339568)
(-4.58538e-16 1.19166 -0.326171)
(-4.94891e-16 1.29609 -0.307258)
(-1.53879e-15 1.54248 -0.550168)
(-1.794e-15 1.2672 -0.469182)
(-1.89245e-15 1.38663 -0.319473)
(-2.04019e-15 1.6686 -1.18783)
(-1.06516e-15 1.81085 -0.570925)
(-1.1633e-15 1.41598 -2.18868)
(-8.89072e-17 1.66785 0.927508)
(-1.80578e-15 1.87753 4.60529)
(-2.05036e-15 1.57026 6.54432)
(-2.42554e-15 1.78865 7.66796)
(-2.52641e-15 1.67916 8.41327)
(-3.19628e-15 2.06 9.13665)
(-3.26923e-15 -0.424782 10.7326)
(-4.05754e-15 3.72828 15.6573)
(-4.0486e-15 3.95928 16.0253)
(-4.06165e-15 3.91854 16.2968)
(-4.0733e-15 3.94006 16.4805)
(-4.01386e-15 3.95225 16.609)
(-4.05606e-15 3.95077 16.6925)
(-4.08066e-15 3.92565 16.7416)
(-4.09721e-15 3.93634 16.7585)
(-4.09354e-15 3.87449 16.7428)
(-4.10295e-15 3.94379 16.7271)
(-4.03655e-15 3.74858 16.5971)
(-3.86515e-15 4.1126 17.2262)
(-4.56382e-15 3.6964 15.3702)
(1.02112e-15 6.88724 14.1078)
(4.28727e-14 -1.43507 0.600703)
(5.79258e-14 0.133761 -2.88803)
(5.74462e-14 0.0894771 -4.98583)
(4.66366e-14 0.345268 -6.98678)
(1.4714e-14 -1.17601 -4.85834)
(1.04463e-14 0.0894625 -3.8512)
(8.45705e-15 0.145986 -3.49327)
(1.17263e-14 -0.363167 -4.03037)
(7.28086e-15 0.116084 -2.99317)
(1.13843e-14 0.424923 -3.67869)
(7.93456e-16 0.40146 2.93732)
(-4.11688e-15 -1.21959 6.63942)
(-3.52644e-15 -1.93661 6.22168)
(-3.83623e-15 -2.62777 6.52508)
(-4.97406e-15 -4.16675 10.0536)
(-3.30773e-15 -5.39305 8.91637)
(-2.19574e-15 -6.65479 8.70922)
(-1.08716e-15 -7.33736 8.54672)
(1.03589e-15 -10.4352 11.0979)
(2.54894e-15 -9.1522 8.54203)
(2.28298e-15 -9.42208 8.9994)
(2.12981e-15 -9.48973 9.13728)
(1.88766e-15 -9.57352 9.51139)
(1.67438e-15 -9.63415 9.94165)
(1.37806e-15 -9.67697 10.4341)
(9.95365e-16 -9.70724 10.9226)
(5.94618e-16 -9.71524 11.3847)
(1.92915e-16 -9.70299 11.799)
(-2.66173e-16 -9.67269 12.1569)
(-6.91749e-16 -9.58292 12.4555)
(-1.08468e-15 -9.44523 12.6883)
(-1.37068e-15 -9.42589 12.7507)
(-7.20369e-16 -4.04518 6.22619)
(-1.56875e-15 -5.56191 11.3947)
(-1.57166e-15 -5.03828 10.8843)
(-1.81214e-15 -4.86192 9.70399)
(-2.14212e-15 -4.89873 6.56863)
(-2.74211e-15 -4.82987 1.73895)
(-1.9138e-15 -5.04046 -1.46138)
(-1.05303e-15 -4.532 -3.2175)
(-1.49795e-15 -4.67347 -2.11723)
(-2.09274e-15 -4.38047 -2.90671)
(-2.06809e-15 -3.73219 -1.30989)
(-2.09634e-15 -3.34927 -1.51756)
(-2.5915e-15 -3.71868 -1.78211)
(-1.5466e-15 -2.96182 -0.925468)
(-1.57141e-15 -2.73415 -1.0567)
(-2.00989e-15 -3.08431 -1.27886)
(-1.10545e-15 -2.49443 -0.693871)
(-1.19908e-15 -2.31653 -0.794196)
(-9.88011e-16 -2.65328 -0.945128)
(1.45379e-16 -2.15793 -0.496202)
(2.32943e-16 -2.23065 -0.548071)
(2.11544e-16 -1.92975 -0.533568)
(2.81739e-16 -2.45291 -0.626713)
(2.12894e-16 -2.14066 -0.392168)
(2.2118e-16 -1.7422 -0.393958)
(2.04472e-16 -2.19645 -0.356155)
(-1.98356e-17 -3.45434 -0.0699187)
(-1.12296e-12 436.995 286.805)
(3.29668e-14 -64.7288 -106.886)
(6.51146e-14 -85.6535 -21.0179)
(-1.28879e-14 -19.8773 69.5242)
(4.90458e-15 -11.6198 4.53067)
(1.18909e-14 13.3337 25.2813)
(9.26526e-16 9.80708 -2.19557)
(4.61959e-15 23.4651 3.3938)
(2.37292e-15 18.8842 -2.71582)
(1.88246e-15 12.3176 -5.87169)
(1.227e-15 3.51255 -7.70203)
(3.18449e-16 -3.50169 -3.21851)
(-8.92635e-18 -3.09714 0.613717)
(2.02208e-18 -2.01085 0.821306)
(-2.70352e-19 -1.29587 0.403147)
(2.82557e-20 -1.47541 -0.0913341)
(-2.21777e-20 -1.73562 -0.157243)
(-5.90035e-20 -1.78768 -0.169294)
(4.6262e-18 -2.08048 0.243765)
(3.52772e-13 -135.711 -99.4075)
(5.03932e-14 36.657 118.985)
(8.66257e-14 -76.5424 -20.0879)
(1.74698e-14 8.79092 65.9417)
(4.87374e-14 2.02455 -5.52311)
(3.94861e-14 -1.83882 6.63381)
(1.14863e-15 4.25863 1.06821)
(-3.98334e-16 -1.71348 1.66077)
(-5.89043e-16 -0.689292 2.13126)
(-1.17019e-16 -1.00686 1.60299)
(1.1326e-15 -4.96687 -4.22455)
(7.38019e-16 -5.50312 -4.91409)
(7.35486e-17 -3.37525 0.555324)
(-5.26396e-18 -1.52722 1.61657)
(2.09333e-18 -0.693154 0.786486)
(-9.42238e-19 -1.1919 -0.133366)
(2.32716e-19 -1.51721 -0.363885)
(4.15702e-19 -1.61592 -0.516316)
(-4.3244e-18 -1.87779 0.164479)
(5.83346e-15 146.993 4.84119)
(8.1348e-14 15.886 -2.48336)
(9.40554e-14 -59.1163 -15.9157)
(6.84495e-14 -12.2254 9.03153)
(8.43756e-14 11.863 -4.65999)
(4.088e-14 6.82086 2.30431)
(1.78771e-15 6.68296 3.23159)
(-2.56995e-16 9.32309 4.18937)
(-3.43843e-16 9.10576 2.19273)
(-6.838e-17 7.03191 0.931736)
(2.53903e-16 1.84984 -1.06883)
(7.27375e-16 -4.86647 -3.97081)
(1.85124e-16 -4.14113 0.00689253)
(-2.109e-17 -1.32593 1.71552)
(-1.00242e-18 0.210528 0.64126)
(1.10044e-17 -0.57427 -0.373794)
(-1.72111e-18 -0.987906 -0.375416)
(-1.58506e-18 -1.2672 -0.654186)
(2.38201e-17 -1.27283 -0.332748)
(8.07862e-14 10.8265 -10.4965)
(1.15124e-13 -23.0969 56.2415)
(9.74913e-14 -54.825 -10.0572)
(9.79578e-14 -11.655 -12.499)
(5.22256e-14 6.66217 -9.14166)
(4.00008e-15 -0.595511 8.13173)
(-4.22271e-16 4.61071 3.93479)
(-9.47543e-16 5.13294 4.98715)
(-7.67443e-16 5.74361 3.76801)
(-1.8883e-16 5.0112 3.11743)
(6.65397e-16 -0.88454 1.0122)
(7.09883e-16 -4.78655 -1.99816)
(3.10054e-16 -5.19302 -0.124009)
(-1.28441e-17 -1.78897 1.81024)
(-1.61946e-16 0.604099 0.922591)
(-6.07497e-17 -0.661489 -1.05882)
(1.59086e-17 -1.09606 -0.701698)
(3.83049e-18 -1.38034 -0.651269)
(1.27848e-16 -1.34689 -0.922351)
(5.91597e-14 61.998 2.19055)
(1.14646e-13 17.0135 22.3915)
(9.51422e-14 -43.1591 -3.11974)
(7.50413e-14 -7.54066 -9.14378)
(5.22144e-15 0.0901642 4.26038)
(-1.59978e-15 1.84509 10.5718)
(-2.4684e-16 6.36258 5.34288)
(-1.58748e-15 6.91154 5.92044)
(-1.04259e-15 7.8223 4.57433)
(-1.67429e-16 6.84948 3.97334)
(8.2144e-16 1.09907 1.81004)
(7.27282e-16 -4.55191 0.126049)
(4.78574e-16 -5.66992 0.259867)
(6.54245e-17 -2.04274 1.70166)
(-4.98817e-16 1.39318 0.548768)
(-8.59153e-16 -0.28133 -1.30118)
(-1.82798e-16 -1.36287 -1.25001)
(1.99395e-19 -1.37327 -0.84338)
(3.73696e-16 -1.09033 -1.677)
(6.55259e-14 26.9458 9.92483)
(1.05837e-13 -7.72751 31.1468)
(7.9907e-14 -34.4312 4.08264)
(1.83671e-14 -9.46512 4.18278)
(5.62205e-15 -2.15922 9.07299)
(7.58237e-15 1.54846 9.21058)
(1.08049e-15 6.66525 6.25302)
(-2.32922e-15 6.47116 5.77209)
(-1.23594e-15 7.46389 4.91273)
(-3.65757e-17 6.80181 4.89549)
(1.02598e-15 1.35144 3.56914)
(8.38181e-16 -4.13701 1.97605)
(6.80725e-16 -5.62719 1.16251)
(2.06031e-16 -1.99712 1.46965)
(-1.11472e-15 1.93668 -0.0658209)
(-2.10502e-15 -0.0116145 -0.765744)
(-8.80138e-16 -1.16026 -1.38593)
(-2.73169e-16 -1.21231 -0.656856)
(6.87712e-16 -0.980037 -3.26179)
(6.26703e-14 31.8344 17.8853)
(8.8695e-14 -0.515904 23.3915)
(6.15379e-14 -29.1975 8.82668)
(-3.11101e-16 -10.1902 7.3709)
(2.82603e-14 -2.51279 8.66566)
(2.76117e-14 2.85923 5.8467)
(9.03653e-15 7.60087 5.52094)
(-2.86962e-15 7.10605 4.80454)
(-1.40287e-15 7.85707 4.72837)
(1.06674e-16 7.15143 5.37492)
(1.28979e-15 1.95225 4.86603)
(1.02075e-15 -3.69005 3.47596)
(8.70775e-16 -5.27636 2.39525)
(2.90658e-16 -1.56193 1.41945)
(-2.25024e-15 2.19469 0.62581)
(-3.09102e-15 -0.0833166 1.10155)
(-1.65809e-15 -1.52786 -0.855874)
(-8.35552e-16 -0.524586 -0.805835)
(7.69632e-16 0.344869 -0.660555)
(6.13945e-14 17.3264 23.1352)
(7.71029e-14 -2.53598 21.0737)
(5.02611e-14 -24.4709 9.90327)
(-6.97543e-15 -10.4786 -0.659437)
(3.65595e-14 -2.03013 7.95404)
(4.5712e-14 4.39669 -3.01162)
(2.65278e-14 7.23855 1.74848)
(-1.52882e-15 6.89995 3.15962)
(-1.71478e-15 7.43438 4.56655)
(7.68567e-17 6.85755 6.08807)
(1.54931e-15 2.1491 6.20658)
(1.14692e-15 -3.27205 4.83021)
(9.80525e-16 -4.71724 3.57113)
(-9.67685e-17 -1.0905 1.95711)
(-3.55267e-15 1.98255 3.19964)
(-3.59421e-15 0.709371 4.06989)
(-1.27129e-15 -0.45324 0.96135)
(-7.89758e-17 -0.734456 1.95303)
(6.79787e-16 -4.75254 6.77828)
(5.69391e-14 12.7325 28.6143)
(7.07686e-14 -1.82425 18.9041)
(4.84937e-14 -17.1217 8.53621)
(8.07781e-15 -10.1504 -12.8125)
(1.39752e-14 -3.7142 -12.8919)
(4.53535e-14 3.29755 -11.8952)
(4.21868e-14 5.49736 -4.94381)
(3.84353e-15 5.63089 1.24762)
(-2.28627e-15 6.59708 4.94815)
(-3.37523e-16 6.42278 7.28418)
(1.76751e-15 2.34976 7.55959)
(1.0703e-15 -2.73563 5.92648)
(9.59297e-16 -4.07679 4.52105)
(-9.39528e-16 -1.08022 3.42957)
(-4.87419e-15 1.31908 6.71336)
(-5.27836e-15 0.565149 9.61756)
(-4.58737e-15 -0.789768 9.93672)
(-4.24421e-15 -2.52907 10.5262)
(-4.54475e-15 -4.80328 11.6492)
(4.22867e-14 3.87695 31.9687)
(6.49656e-14 -0.592356 17.84)
(5.6036e-14 -7.46612 6.26743)
(4.63909e-14 -5.68676 -19.7528)
(5.21108e-14 -2.40824 -24.9863)
(6.03592e-14 1.16897 -20.0046)
(4.52146e-14 2.32568 -10.241)
(9.60344e-15 2.86638 -0.33391)
(-3.00555e-15 4.91486 5.90243)
(-1.27768e-15 5.79037 8.88969)
(1.73838e-15 2.68418 9.08188)
(3.6275e-15 -2.12596 6.39577)
(3.4186e-16 -3.64039 4.99184)
(-1.99634e-15 -1.91578 4.57843)
(-6.33887e-15 -0.570788 8.93903)
(-6.2161e-15 -0.852313 12.7268)
(-5.85765e-15 -1.12845 13.2633)
(-4.86193e-15 -1.85147 11.6457)
(-3.19435e-15 -2.93775 8.72558)
(4.62769e-16 -1.23058 32.9442)
(-1.73982e-15 1.13758 18.4009)
(1.47573e-15 5.60227 6.69782)
(8.27747e-15 0.0356295 -20.6941)
(1.69969e-14 -2.38355 -26.7743)
(2.43852e-14 -2.37963 -21.0811)
(3.07228e-14 -1.69551 -11.0537)
(8.78028e-15 -0.505128 -0.232506)
(-3.56604e-15 2.81866 6.73442)
(-2.48791e-15 5.10826 10.0877)
(-8.12419e-16 3.41367 10.798)
(9.36943e-16 -1.23949 6.73185)
(-4.04273e-16 -3.28695 5.01928)
(-2.5255e-15 -2.66926 5.21124)
(-5.1777e-15 -1.72396 8.99697)
(-4.63085e-15 -0.901416 11.9632)
(-2.66729e-15 -0.0520765 11.1578)
(-1.95082e-16 -0.529903 7.70705)
(3.07639e-15 -2.59708 2.93536)
(-5.51666e-15 -10.1211 29.9457)
(-3.61038e-16 2.78817 19.5136)
(-1.48445e-15 16.1658 9.00548)
(-9.55588e-16 5.5689 -15.5358)
(-1.17175e-15 -1.31776 -21.5391)
(5.09362e-15 -5.18748 -17.1577)
(1.68848e-14 -5.5662 -8.30947)
(3.39992e-15 -3.77758 1.33793)
(-3.80813e-15 0.926773 6.28837)
(-3.06278e-15 4.18194 9.30674)
(-2.00148e-15 3.96334 11.7882)
(-4.32273e-16 0.246063 9.06785)
(-7.08676e-16 -2.91727 5.71222)
(-2.49511e-15 -3.5503 6.16309)
(-4.3668e-15 -3.25923 9.29565)
(-5.33031e-15 -2.06551 12.8824)
(-4.82521e-15 0.0501057 14.5985)
(-1.45192e-16 1.96984 13.0376)
(1.28939e-14 3.34701 8.93034)
(-5.87591e-15 -15.0231 24.4454)
(-3.63462e-16 3.03246 20.9925)
(-9.21732e-16 24.3788 10.4839)
(4.37446e-16 8.56667 -3.50236)
(-2.55489e-15 -0.228555 -8.01346)
(7.01165e-16 -7.27757 -8.59177)
(9.49596e-15 -8.62758 -3.18623)
(-5.39893e-16 -6.0709 3.09097)
(-3.56252e-15 -0.37095 3.83705)
(-2.97879e-15 2.91707 5.50317)
(-2.74996e-15 3.33402 9.91837)
(-1.94305e-15 1.10655 11.6021)
(-1.25146e-15 -2.15296 9.52677)
(-2.08491e-15 -4.01729 9.00999)
(-3.31585e-15 -4.32954 10.87)
(-3.93493e-15 -2.77454 12.827)
(-3.35732e-15 0.163976 11.4279)
(-3.66776e-15 2.74862 9.40439)
(-5.07857e-15 6.2729 13.3698)
(-5.7078e-15 -29.57 19.0927)
(-3.14531e-16 4.23122 23.5099)
(-9.48345e-16 29.5058 10.4243)
(2.19807e-16 9.8727 8.70107)
(1.28228e-15 0.00756113 5.82644)
(1.86828e-15 -7.78319 0.57255)
(4.4389e-15 -10.0066 2.22084)
(-2.03446e-15 -6.73353 4.35118)
(-3.34319e-15 -0.681615 1.46069)
(-2.4413e-15 1.83762 1.63807)
(-2.22971e-15 1.5715 6.22704)
(-2.58171e-15 0.250046 10.6355)
(-2.30751e-15 -2.03404 11.9005)
(-2.2647e-15 -4.12227 11.6886)
(-2.59447e-15 -4.71734 11.7234)
(-2.1644e-15 -2.44929 9.61482)
(-3.39202e-16 1.14748 2.89816)
(3.49439e-16 0.871405 0.00696797)
(-6.63079e-16 -0.194903 3.05123)
(-5.42881e-15 -25.0275 10.1423)
(-2.35543e-16 5.48285 29.2817)
(-9.92621e-16 33.4722 6.94971)
(-7.43622e-17 10.324 13.045)
(2.38674e-15 1.38617 11.5172)
(2.0728e-15 -6.20515 7.62444)
(1.12999e-15 -9.87161 5.92297)
(-2.49096e-15 -5.84487 4.99544)
(-3.61681e-15 0.220988 0.599525)
(-2.71038e-15 0.940025 0.979033)
(-2.29698e-15 -0.0294025 5.28331)
(-2.81729e-15 -0.947262 8.60709)
(-2.95292e-15 -2.41726 10.618)
(-2.69957e-15 -3.87837 11.2269)
(-2.19328e-15 -3.53416 9.82199)
(-1.13647e-15 0.371263 4.96362)
(-4.59575e-16 3.51787 0.792851)
(-1.09373e-16 2.69975 0.97427)
(3.01149e-16 1.93481 -0.969309)
(-5.50134e-15 -59.8332 3.92761)
(-2.13729e-16 -15.4386 24.5078)
(-1.08126e-15 38.9151 0.0852835)
(-1.24868e-15 6.03285 4.59083)
(7.62172e-16 2.24316 10.0096)
(9.09494e-16 -5.56504 10.4383)
(-4.33406e-16 -8.70568 7.31042)
(-2.70751e-15 -4.38175 4.81163)
(-3.11479e-15 0.891634 -1.52567)
(-2.76838e-15 -0.235887 -1.0543)
(-2.13557e-15 -1.63642 3.04242)
(-2.443e-15 -2.21004 5.94588)
(-2.95772e-15 -3.26917 7.49087)
(-2.91439e-15 -3.87508 8.09382)
(-2.12076e-15 -2.24212 5.98091)
(-1.18134e-15 1.59301 0.928972)
(-8.30336e-16 3.22693 0.26059)
(-1.05826e-16 2.22844 0.267505)
(-3.89192e-17 1.1551 0.180844)
(-4.62459e-15 -11.0375 -9.5387)
(-6.72688e-17 32.265 56.9549)
(-1.22634e-15 49.3352 -6.95512)
(-1.65675e-15 3.93991 -13.632)
(-5.37951e-16 -2.59862 4.10101)
(-2.58891e-16 -3.69445 10.5902)
(-1.27098e-15 -7.87255 7.49184)
(-2.93184e-15 -2.14653 3.85222)
(-2.13432e-15 2.31542 -3.18475)
(-2.13486e-15 -0.346555 -2.88134)
(-2.18984e-15 -2.44637 -0.133093)
(-1.93934e-15 -2.38954 3.3001)
(-2.40659e-15 -2.76778 4.30635)
(-2.76739e-15 -2.89401 4.59361)
(-2.28739e-15 -0.528943 2.70751)
(-1.89209e-15 2.17518 -0.65738)
(-1.1977e-15 3.62409 -0.777481)
(-2.63534e-16 2.54566 -0.303872)
(2.20947e-17 1.67914 0.0322357)
(-3.52086e-15 -142.203 3.41145)
(-2.59804e-15 -25.406 -10.6227)
(-1.42689e-15 55.7084 -13.1844)
(-1.42948e-15 20.0365 -11.2383)
(-1.45673e-15 -9.52708 5.54413)
(-1.3364e-15 -7.09083 10.1974)
(-1.68105e-15 -5.69545 5.46738)
(-2.20729e-15 0.16954 1.16931)
(-1.03799e-15 3.391 -3.33547)
(-1.13224e-15 -0.760895 -2.26208)
(-2.18988e-15 -4.72511 -1.01015)
(-2.03676e-15 -4.96026 1.46089)
(-2.04125e-15 -4.87297 2.1096)
(-2.5098e-15 -4.221 1.47198)
(-2.37087e-15 -1.00094 -0.487241)
(-2.52849e-15 2.43998 -2.2456)
(-1.55488e-15 3.16446 -1.63812)
(-2.97279e-16 1.91385 -0.298269)
(6.59957e-18 1.19917 0.373183)
(-3.8531e-15 133.269 -100.164)
(-7.95388e-16 -30.9225 115.937)
(-1.47805e-15 74.1843 -16.8407)
(-2.00866e-15 -16.8616 57.0991)
(-1.60607e-15 -7.15681 3.34654)
(-1.27561e-15 -0.173545 12.4635)
(-2.12604e-15 -6.24474 4.52949)
(-3.8272e-16 2.14603 -4.95588)
(-3.3418e-16 3.19559 -1.25395)
(-5.92328e-16 1.12167 -0.162603)
(-1.10495e-15 -2.16962 -1.48159)
(-1.21623e-15 -1.20821 -0.623237)
(-5.46074e-16 0.351909 0.7108)
(-5.51414e-16 0.911892 0.523861)
(-2.29188e-15 3.52688 -2.43561)
(-3.21933e-15 3.58944 -3.6736)
(-1.3971e-15 3.17993 -1.44769)
(-1.13751e-16 1.90677 0.239857)
(-1.33334e-19 1.76682 0.607939)
(1.09595e-14 -422.548 272.942)
(-2.77862e-16 60.678 -103.297)
(-9.61689e-16 79.5097 -14.7936)
(-3.57296e-15 8.47979 76.9334)
(-3.88358e-15 3.99165 -1.14042)
(-5.45898e-15 -13.8823 23.3981)
(-8.37623e-16 3.31341 -4.98433)
(2.96876e-16 4.61331 -3.75674)
(-9.82548e-16 -0.038182 3.7349)
(-4.06857e-15 -6.4131 7.35889)
(-4.57726e-15 -8.76217 2.64164)
(-6.45712e-15 -11.7733 -0.505523)
(-7.23596e-15 -11.6348 -2.24628)
(-6.49561e-15 -8.23732 -3.89435)
(-5.74651e-15 -3.53868 -5.36519)
(-2.63382e-15 1.62123 -3.14126)
(-2.87328e-16 2.80503 -0.365768)
(3.29194e-17 1.97513 0.377759)
(2.25195e-18 2.03387 0.394518)
(1.24319e-16 5.31062 9.53387)
(-5.26458e-15 10.1229 17.1322)
(-4.05138e-15 10.2196 17.105)
(-4.08944e-15 9.90952 16.353)
(-4.00201e-15 9.88562 16.1406)
(-5.6283e-15 9.94973 16.0808)
(-4.34388e-15 9.82112 15.7311)
(-3.81526e-15 9.74115 15.604)
(-3.7709e-15 9.6702 15.5943)
(-3.80099e-15 9.6336 15.5905)
(-3.77735e-15 9.58501 15.5962)
(-3.75348e-15 9.53721 15.6038)
(-3.84932e-15 9.49215 15.6083)
(-3.94261e-15 9.43934 15.6177)
(-3.82203e-15 9.39722 15.6154)
(-3.81754e-15 9.33385 15.6178)
(-3.81238e-15 9.29992 15.6074)
(-3.55879e-15 9.50256 16.0803)
(-3.58323e-15 9.79034 16.55)
(-5.71195e-15 5.57409 9.31977)
(3.71964e-17 5.01502 8.53297)
(-4.31581e-15 9.2787 15.9467)
(-2.90402e-15 8.99968 15.5858)
(-3.22013e-15 8.73163 15.1397)
(-3.15489e-15 8.71013 15.1918)
(-5.12271e-15 8.7364 15.2377)
(-3.14407e-15 8.7728 15.358)
(-2.96881e-15 8.81404 15.3993)
(-3.14188e-15 8.82717 15.4254)
(-3.27829e-15 8.84517 15.4429)
(-3.18318e-15 8.85642 15.4589)
(-3.25961e-15 8.86691 15.4728)
(-3.20001e-15 8.87836 15.4825)
(-3.39153e-15 8.88096 15.4953)
(-3.17826e-15 8.8962 15.4969)
(-3.33921e-15 8.88333 15.502)
(-3.20126e-15 8.92042 15.5133)
(-3.0928e-15 9.15474 15.9732)
(-3.08691e-15 9.41788 16.3608)
(-4.91318e-15 5.30692 9.30997)
(5.19891e-18 5.4872 9.52738)
(-1.42223e-15 9.58351 16.4003)
(-1.00936e-15 9.29405 16.0022)
(-1.04927e-15 9.05076 15.5104)
(-1.18994e-15 9.01507 15.4878)
(-2.95746e-15 9.0331 15.4847)
(-1.57104e-15 9.00967 15.4709)
(-1.35857e-15 9.00696 15.4632)
(-1.37886e-15 8.99502 15.4686)
(-1.55626e-15 8.9929 15.4713)
(-1.39638e-15 8.98525 15.4783)
(-1.51004e-15 8.98031 15.4855)
(-1.38477e-15 8.97713 15.492)
(-1.53569e-15 8.96814 15.5037)
(-1.44715e-15 8.97115 15.5081)
(-1.6039e-15 8.95201 15.5195)
(-1.49111e-15 8.96761 15.5214)
(-1.40701e-15 9.16028 15.9363)
(-1.35724e-15 9.51454 16.4907)
(-2.12111e-15 5.63253 9.89321)
(-3.96164e-18 5.61558 9.69399)
(3.6557e-16 9.48872 16.2892)
(2.53846e-16 9.11837 15.7424)
(2.84116e-16 8.90476 15.3368)
(2.56116e-16 8.88442 15.3505)
(-1.816e-15 8.90259 15.3584)
(-1.36588e-15 8.8948 15.3762)
(-1.38626e-15 8.90477 15.3799)
(-1.36875e-15 8.89987 15.3897)
(-1.67014e-15 8.90464 15.3941)
(-1.58866e-15 8.90295 15.4014)
(-1.4297e-15 8.90394 15.4076)
(-1.37611e-15 8.90545 15.413)
(-1.36894e-15 8.90202 15.4219)
(-1.40709e-15 8.90822 15.4243)
(-1.51929e-15 8.89454 15.4318)
(-1.38053e-15 8.91093 15.4324)
(-1.33807e-15 9.09306 15.8069)
(-1.32258e-15 9.46861 16.4118)
(-2.153e-15 5.76164 10.0821)
(1.41641e-18 5.84547 10.1126)
(-8.95071e-17 9.51779 16.3371)
(-6.38857e-17 9.10832 15.7267)
(-6.95628e-17 8.91971 15.3531)
(-6.56758e-17 8.89813 15.3624)
(4.31257e-16 8.9134 15.3654)
(3.42107e-16 8.90119 15.3738)
(3.25065e-16 8.9063 15.3739)
(3.25169e-16 8.89913 15.3812)
(3.61422e-16 8.90107 15.3841)
(3.27726e-16 8.8972 15.3903)
(3.5475e-16 8.89653 15.3955)
(3.3277e-16 8.89598 15.4003)
(3.58339e-16 8.89203 15.4082)
(3.4314e-16 8.89632 15.4108)
(3.65091e-16 8.8838 15.4181)
(3.49667e-16 8.89647 15.4154)
(3.30041e-16 9.05958 15.7542)
(3.23957e-16 9.4668 16.4146)
(4.93379e-16 5.94682 10.411)
(-4.10877e-19 6.0268 10.4132)
(2.0489e-17 9.49364 16.306)
(1.60175e-17 9.04992 15.6283)
(1.68544e-17 8.88414 15.3009)
(1.63475e-17 8.86756 15.3159)
(-1.05262e-16 8.88169 15.3193)
(-8.3734e-17 8.87145 15.3294)
(-7.86525e-17 8.87724 15.3306)
(-8.04549e-17 8.87109 15.3382)
(-8.60015e-17 8.8736 15.3415)
(-8.22155e-17 8.87027 15.3478)
(-8.31794e-17 8.87035 15.3527)
(-8.23045e-17 8.86976 15.3578)
(-9.15952e-17 8.86688 15.3651)
(-8.25063e-17 8.87047 15.3681)
(-8.88541e-17 8.86002 15.3753)
(-8.82481e-17 8.86969 15.3711)
(-8.06317e-17 9.01375 15.6708)
(-7.8822e-17 9.44501 16.3803)
(-1.14754e-16 6.12243 10.71)
(1.12629e-19 6.22305 10.7516)
(-4.60469e-18 9.48174 16.2896)
(-3.9447e-18 9.01247 15.5651)
(-4.20112e-18 8.86886 15.2767)
(-4.07292e-18 8.85416 15.293)
(2.57853e-17 8.86677 15.2953)
(2.01559e-17 8.85673 15.3041)
(1.97196e-17 8.86165 15.3052)
(2.02879e-17 8.85563 15.3122)
(2.05721e-17 8.85769 15.3151)
(2.06845e-17 8.85421 15.3211)
(1.96592e-17 8.8543 15.3255)
(2.05215e-17 8.85318 15.3306)
(2.22634e-17 8.85088 15.3371)
(2.02309e-17 8.85345 15.3404)
(2.14331e-17 8.84471 15.3472)
(2.15468e-17 8.85172 15.3419)
(1.93521e-17 8.97706 15.604)
(1.94567e-17 9.42653 16.3491)
(2.80582e-17 6.306 11.027)
(-3.0672e-20 6.41054 11.0694)
(1.05456e-18 9.45678 16.2525)
(9.44224e-19 8.97062 15.4933)
(1.02936e-18 8.84778 15.2438)
(1.00087e-18 8.83545 15.2613)
(-6.29608e-18 8.84681 15.2633)
(-4.94528e-18 8.83764 15.2718)
(-4.9872e-18 8.8422 15.2732)
(-5.12294e-18 8.83671 15.2799)
(-5.03946e-18 8.83869 15.2829)
(-5.11568e-18 8.83538 15.2889)
(-4.82792e-18 8.83575 15.2931)
(-5.14745e-18 8.83435 15.2984)
(-5.32044e-18 8.83281 15.3044)
(-5.05561e-18 8.83453 15.3083)
(-5.09995e-18 8.82759 15.3149)
(-5.09599e-18 8.83233 15.3093)
(-4.73235e-18 8.93997 15.5353)
(-4.91889e-18 9.40031 16.3043)
(-6.81546e-18 6.48724 11.3383)
(8.31512e-21 6.5994 11.3917)
(-2.4763e-19 9.42907 16.2096)
(-2.21184e-19 8.93363 15.43)
(-2.39683e-19 8.83044 15.2166)
(-2.39892e-19 8.81969 15.2345)
(1.51727e-18 8.82982 15.236)
(1.23615e-18 8.82134 15.2439)
(1.24276e-18 8.82537 15.2454)
(1.28967e-18 8.82032 15.2518)
(1.24362e-18 8.82206 15.2547)
(1.25038e-18 8.81888 15.2605)
(1.19981e-18 8.81939 15.2645)
(1.28573e-18 8.81769 15.2698)
(1.2739e-18 8.81681 15.2752)
(1.25697e-18 8.81764 15.2795)
(1.20849e-18 8.81238 15.2857)
(1.19419e-18 8.81517 15.2806)
(1.18507e-18 8.90624 15.4725)
(1.24473e-18 9.37006 16.2522)
(1.59464e-18 6.66874 11.6506)
(-2.20828e-21 6.78571 11.7087)
(5.8838e-20 9.39447 16.1552)
(5.15075e-20 8.89792 15.3687)
(5.34632e-20 8.81295 15.1893)
(5.6712e-20 8.80356 15.2069)
(-3.57738e-19 8.81254 15.2082)
(-3.07075e-19 8.80483 15.2156)
(-3.03473e-19 8.8084 15.2173)
(-3.19896e-19 8.80385 15.2234)
(-3.02764e-19 8.80538 15.2264)
(-3.0349e-19 8.80241 15.2319)
(-2.94475e-19 8.80305 15.2358)
(-3.14537e-19 8.80114 15.2412)
(-3.05546e-19 8.80091 15.2461)
(-3.06477e-19 8.80091 15.2509)
(-2.84567e-19 8.7973 15.2567)
(-2.82596e-19 8.79841 15.2524)
(-2.95966e-19 8.8743 15.4126)
(-3.09073e-19 9.33402 16.1902)
(-3.63413e-19 6.84892 11.9603)
(5.68365e-22 6.97113 12.0245)
(-1.39135e-20 9.35477 16.0918)
(-1.20952e-20 8.86499 15.3121)
(-1.18196e-20 8.79674 15.1641)
(-1.34741e-20 8.78836 15.1809)
(8.26916e-20 8.79627 15.182)
(7.45304e-20 8.7893 15.189)
(7.29265e-20 8.79237 15.1908)
(7.70456e-20 8.78833 15.1965)
(7.2064e-20 8.7896 15.1995)
(7.29505e-20 8.78687 15.2049)
(7.10697e-20 8.78757 15.2086)
(7.48125e-20 8.7855 15.2141)
(7.31313e-20 8.78583 15.2185)
(7.30484e-20 8.78505 15.2237)
(6.67022e-20 8.783 15.229)
(6.73567e-20 8.78263 15.226)
(7.23674e-20 8.84482 15.3569)
(7.52113e-20 9.29284 16.1192)
(8.21567e-20 7.02823 12.2685)
(-1.42157e-22 7.15505 12.3375)
(3.24634e-21 9.30931 16.0185)
(2.88374e-21 8.83429 15.2594)
(2.67952e-21 8.78115 15.1399)
(3.24246e-21 8.77354 15.1556)
(-1.89246e-20 8.78047 15.1566)
(-1.76477e-20 8.77424 15.1631)
(-1.7312e-20 8.77683 15.1651)
(-1.79805e-20 8.7733 15.1705)
(-1.68526e-20 8.77429 15.1736)
(-1.73174e-20 8.77187 15.1787)
(-1.69216e-20 8.77255 15.1823)
(-1.74038e-20 8.77042 15.1878)
(-1.743e-20 8.77123 15.1918)
(-1.71014e-20 8.76974 15.1974)
(-1.56731e-20 8.76916 15.2021)
(-1.5962e-20 8.76748 15.2007)
(-1.7318e-20 8.81758 15.305)
(-1.80621e-20 9.24622 16.039)
(-1.857e-20 7.20645 12.5748)
(3.49936e-23 7.3378 12.6486)
(-7.49079e-22 9.2584 15.9358)
(-6.96481e-22 8.8061 15.2109)
(-6.30118e-22 8.76636 15.1171)
(-7.84745e-22 8.75934 15.1314)
(4.32978e-21 8.76536 15.1324)
(4.11473e-21 8.75984 15.1384)
(4.06492e-21 8.76196 15.1406)
(4.11624e-21 8.75896 15.1456)
(3.91903e-21 8.75963 15.1488)
(4.06902e-21 8.75755 15.1536)
(3.98703e-21 8.75816 15.1572)
(4.01269e-21 8.75605 15.1626)
(4.14026e-21 8.75724 15.1663)
(3.97313e-21 8.75512 15.1722)
(3.7156e-21 8.7559 15.1763)
(3.73895e-21 8.75304 15.1767)
(4.09331e-21 8.79273 15.2572)
(4.30883e-21 9.19428 15.9497)
(4.19312e-21 7.38371 12.8791)
(-8.59788e-24 7.51934 12.9575)
(1.7253e-22 9.20191 15.8434)
(1.69139e-22 8.78031 15.1666)
(1.51885e-22 8.75222 15.0953)
(1.88739e-22 8.74565 15.1081)
(-9.9598e-22 8.75085 15.1091)
(-9.57486e-22 8.74602 15.1147)
(-9.45616e-22 8.74766 15.117)
(-9.3948e-22 8.7452 15.1216)
(-9.1634e-22 8.74554 15.1249)
(-9.52047e-22 8.74386 15.1295)
(-9.3324e-22 8.74431 15.133)
(-9.28506e-22 8.74233 15.1383)
(-9.83368e-22 8.74376 15.1417)
(-9.25842e-22 8.74118 15.1479)
(-8.89671e-22 8.74315 15.1514)
(-8.70661e-22 8.73923 15.1537)
(-9.6552e-22 8.77023 15.2133)
(-1.0266e-21 9.13695 15.8513)
(-9.44761e-22 7.55999 13.1816)
(2.12491e-24 7.69989 13.2645)
(-4.00355e-23 9.13992 15.7414)
(-4.10153e-23 8.75695 15.1265)
(-3.6846e-23 8.73878 15.0745)
(-4.48159e-23 8.73251 15.0858)
(2.30889e-22 8.73697 15.0868)
(2.24774e-22 8.73282 15.0919)
(2.18877e-22 8.73399 15.0945)
(2.15834e-22 8.73205 15.0987)
(2.16643e-22 8.73206 15.1021)
(2.23119e-22 8.73077 15.1064)
(2.18323e-22 8.73101 15.1099)
(2.16946e-22 8.72928 15.115)
(2.34091e-22 8.73077 15.1183)
(2.17594e-22 8.72792 15.1246)
(2.14269e-22 8.73089 15.1275)
(2.03848e-22 8.72601 15.1316)
(2.28755e-22 8.75008 15.1733)
(2.45502e-22 9.07421 15.7438)
(2.13046e-22 7.73531 13.4819)
(-5.28e-25 7.87976 13.5702)
(9.39622e-24 9.0725 15.6298)
(9.89334e-24 8.73614 15.0909)
(8.8933e-24 8.72618 15.055)
(1.05267e-23 8.72014 15.0647)
(-5.39624e-23 8.72388 15.0658)
(-5.34199e-23 8.72045 15.0704)
(-5.07063e-23 8.7211 15.0731)
(-4.99528e-23 8.71966 15.077)
(-5.17895e-23 8.71937 15.0804)
(-5.25291e-23 8.71842 15.0844)
(-5.1344e-23 8.7184 15.088)
(-5.11261e-23 8.71701 15.0927)
(-5.5777e-23 8.71831 15.096)
(-5.15381e-23 8.71547 15.1022)
(-5.16108e-23 8.71909 15.1046)
(-4.83792e-23 8.71341 15.1105)
(-5.44565e-23 8.73225 15.1373)
(-5.91067e-23 9.00613 15.6274)
(-4.8339e-23 7.90969 13.7798)
(1.31288e-25 8.05938 13.8752)
(-2.22575e-24 8.99947 15.5081)
(-2.37117e-24 8.7178 15.0597)
(-2.12949e-24 8.71455 15.0366)
(-2.46506e-24 8.70877 15.0447)
(1.27001e-23 8.71173 15.0461)
(1.28067e-23 8.70916 15.0501)
(1.1811e-23 8.70929 15.053)
(1.16176e-23 8.7083 15.0564)
(1.24715e-23 8.70781 15.0598)
(1.24206e-23 8.70712 15.0635)
(1.21675e-23 8.70686 15.0672)
(1.20904e-23 8.70588 15.0715)
(1.32501e-23 8.70673 15.0749)
(1.22551e-23 8.70427 15.0809)
(1.23827e-23 8.70799 15.0831)
(1.16359e-23 8.70176 15.0903)
(1.29677e-23 8.71697 15.1052)
(1.43147e-23 8.93308 15.5027)
(1.10704e-23 8.08318 14.0752)
(-3.25143e-26 8.23966 14.1804)
(5.29236e-25 8.92059 15.3748)
(5.64624e-25 8.70165 15.0324)
(5.06566e-25 8.70362 15.0189)
(5.80056e-25 8.6985 15.0253)
(-2.99981e-24 8.70034 15.0269)
(-3.07462e-24 8.69873 15.0302)
(-2.76836e-24 8.69839 15.033)
(-2.7114e-24 8.6977 15.0361)
(-3.00669e-24 8.69712 15.0394)
(-2.94183e-24 8.69657 15.0428)
(-2.8989e-24 8.69617 15.0463)
(-2.85374e-24 8.69556 15.0503)
(-3.12599e-24 8.69586 15.054)
(-2.91426e-24 8.69426 15.0594)
(-2.95287e-24 8.69726 15.0619)
(-2.81458e-24 8.69129 15.07)
(-3.07065e-24 8.70425 15.0762)
(-3.47052e-24 8.85558 15.3705)
(-2.55649e-24 8.25515 14.3662)
(8.09173e-27 8.42319 14.4926)
(-1.27083e-25 8.83808 15.2311)
(-1.35043e-25 8.69069 15.012)
(-1.21244e-25 8.69522 15.0051)
(-1.39155e-25 8.69182 15.0089)
(7.16169e-25 8.69212 15.0105)
(7.42231e-25 8.69115 15.0126)
(6.57969e-25 8.69035 15.0148)
(6.42383e-25 8.68951 15.0171)
(7.28928e-25 8.68862 15.0197)
(7.03014e-25 8.68775 15.0224)
(6.99059e-25 8.68689 15.0254)
(6.77179e-25 8.68605 15.0287)
(7.39205e-25 8.68543 15.0321)
(6.98893e-25 8.68433 15.0364)
(7.06539e-25 8.68532 15.0397)
(6.85591e-25 8.68103 15.0469)
(7.27515e-25 8.69107 15.0483)
(8.45677e-25 8.77265 15.2324)
(5.98128e-25 8.42326 14.6449)
(-1.69526e-27 8.61058 14.8239)
(2.55479e-26 8.7527 15.0801)
(2.70717e-26 8.69281 15.0032)
(2.43687e-26 8.695 15.0014)
(2.84294e-26 8.69442 15.0021)
(-1.42681e-25 8.69407 15.0026)
(-1.49483e-25 8.69366 15.0031)
(-1.3194e-25 8.69305 15.0038)
(-1.28988e-25 8.69232 15.0046)
(-1.46894e-25 8.69143 15.0056)
(-1.40837e-25 8.69038 15.0067)
(-1.41563e-25 8.68914 15.008)
(-1.34631e-25 8.68772 15.0095)
(-1.46169e-25 8.68604 15.0113)
(-1.41049e-25 8.68417 15.0133)
(-1.41321e-25 8.68208 15.0156)
(-1.39162e-25 8.67892 15.0189)
(-1.43666e-25 8.67938 15.02)
(-1.71677e-25 8.69418 15.0844)
(-1.17593e-25 8.5934 14.8933)
(-2.47566e-26 -2.60528 17.0256)
(-5.54786e-25 -8.0404 13.6733)
(-1.21383e-24 -5.17472 14.5275)
(6.24251e-25 -4.9795 14.143)
(7.92909e-24 -4.05432 14.108)
(1.69032e-23 -3.48356 13.9404)
(1.37158e-23 -2.90081 13.7896)
(-8.10101e-24 -2.42108 13.607)
(-1.55068e-24 -2.00193 13.4077)
(1.83375e-22 -1.65728 13.1916)
(7.8569e-22 -1.38841 12.9722)
(1.99307e-21 -1.2066 12.7671)
(3.71888e-21 -1.1209 12.5904)
(5.49072e-21 -1.14487 12.4254)
(6.62719e-21 -1.2876 12.2134)
(6.61375e-21 -1.50192 11.8937)
(5.40368e-21 -1.81401 11.3655)
(3.51496e-21 -2.51049 10.3371)
(1.74775e-21 -2.73548 8.83796)
(4.28092e-22 0.149983 6.69241)
(8.62595e-26 -11.2598 28.5552)
(-6.46735e-25 -17.0014 25.137)
(-2.88453e-24 -12.0298 25.5216)
(-3.82287e-24 -12.6124 23.8563)
(-1.87692e-24 -10.8655 23.1375)
(-3.67079e-24 -10.1599 22.0836)
(-7.17987e-24 -9.13488 21.1998)
(4.61052e-23 -8.32054 20.2838)
(2.85721e-22 -7.51146 19.4093)
(7.61347e-22 -6.78116 18.5469)
(1.08075e-21 -6.08937 17.689)
(8.36894e-23 -5.41217 16.7703)
(-3.96908e-21 -4.68065 15.6565)
(-1.24548e-20 -3.81166 14.1471)
(-2.50161e-20 -2.74855 12.0479)
(-3.82841e-20 -1.56223 9.2697)
(-4.56764e-20 -0.468619 5.97612)
(-4.25378e-20 0.40542 2.72881)
(-3.42126e-20 1.12223 -0.0766683)
(-1.87412e-20 1.0947 -1.69656)
(1.10148e-25 -14.3875 30.9999)
(-4.7067e-25 -18.3224 28.0331)
(-1.17337e-24 -13.6434 27.9604)
(-1.40979e-24 -14.5925 25.6059)
(-1.07344e-23 -12.5219 24.6795)
(-5.22313e-23 -12.0938 23.0971)
(-1.18859e-22 -11.0041 21.9033)
(-9.11199e-23 -10.3149 20.603)
(2.64167e-22 -9.54375 19.4206)
(1.01959e-21 -8.90125 18.2533)
(1.47129e-21 -8.27417 17.1178)
(-4.56394e-22 -7.64511 15.8913)
(-8.07068e-21 -6.8627 14.3609)
(-2.47294e-20 -5.7141 12.1413)
(-5.02077e-20 -3.83148 8.63737)
(-6.77266e-20 -0.867953 3.25294)
(-4.14951e-20 2.13669 -2.54456)
(-7.49058e-21 2.97205 -4.2445)
(-1.82447e-20 4.18137 -5.48141)
(-2.27144e-20 3.00467 -6.32934)