/*--------------------------------*- C++ -*----------------------------------*\
| =========                 |                                                 |
| \\      /  F ield         | OpenFOAM: The Open Source CFD Toolbox           |
|  \\    /   O peration     | Version:  4.1                                   |
|   \\  /    A nd           | Web:      www.OpenFOAM.org                      |
|    \\/     M anipulation  |                                                 |
\*---------------------------------------------------------------------------*/
FoamFile
{
    version     2.0;
    format      ascii;
    class       volScalarField;
    location    "10";
    object      p;
}
// * * * * * * * * * * * * * * * * * * * * * * * * * * * * * * * * * * * * * //

dimensions      [0 2 -2 0 0 0 0];

internalField   nonuniform List<scalar> 
1280
(
-23.2804
-8.10092
-24.8766
-55.1298
-26.0046
-56.7445
-92.0528
-100.072
-91.4211
-121.488
-198.287
-164.994
-224.428
-360.708
-312.688
-464.315
-684.613
-830.465
-669.075
-2210.54
-661.479
864.502
1588.48
1955.95
1867.21
2443.75
-1441.32
-44.5503
136.751
72.89
56.1916
28.3278
-16.6247
-77.2997
-143.921
-239.638
-329.401
-494.756
-648.153
-1071.85
-2351.36
-1259.21
-745.884
-458.14
1107.17
516.182
608.232
627.342
281.256
675.365
626.744
195.749
623.646
560.541
402.87
888.662
-402.489
-671.61
-1354.13
-3303.28
-269.131
245.92
365.404
519.262
543.675
544.605
500.895
454.292
404.588
362.464
331.858
316.51
253.522
-1375
2207.86
1483.06
1521.58
1230.68
881.721
-92.5171
-1231.12
-215.262
-359.08
-288.995
-201.771
-114.39
-128.758
-66.4601
-35.5285
-49.8767
-20.7236
-5.925
-5.47308
-3.92443
5.72655
9.46131
3.57098
6.76618
2.79622
0.460491
-26.7771
70.2454
171.946
7.20318
37.7411
32.1703
17.9485
-62.5026
-59.2816
-381.653
-281.613
-192.726
0.639404
68.7337
62.4162
25.4839
16.019
21.1529
8.352
-12.3903
170.186
394.922
136.637
160.336
86.779
50.758
-52.9364
-144.738
-461.691
-275.125
-219.417
120.921
205.881
148.033
55.2881
32.1162
42.7116
36.8402
6.12363
194.806
426.76
219.486
216.801
140.985
98.1217
-64.1652
-386.129
-426.563
-387.802
-279.714
191.12
306.279
228.011
79.8317
37.3821
33.2488
48.9865
22.9453
238.979
455.781
324.008
282.914
193.979
142.249
-34.5208
-495.318
-428.576
-433.011
-351.29
257.262
426.085
322.744
108.992
43.7058
41.6014
105.132
45.1017
270.938
452.272
374.964
315.428
229.521
181.72
4.21668
-447.105
-370.146
-785.181
-593.219
342.367
546.161
411.407
130.313
34.8184
-7.03393
77.7333
70.9424
294.438
457.557
425.051
334.099
242.903
198.879
30.6581
-425.351
-554.375
-1763.4
-568.134
375.731
652.194
486.464
141.322
25.4601
47.3338
232.228
97.3659
298.742
464.25
430.25
313.333
213.955
178.818
62.2008
-264.414
-633.504
-1644.91
-538.846
442.604
751.071
576.631
155.867
6.08065
-142.128
59.415
117.151
273.049
460.485
393.544
254.518
143.118
138.664
89.8387
-76.8629
-508.007
-1262.35
-574.055
395.28
760.145
673.087
324.955
129.504
467.399
622.588
125.918
228.117
422.236
301.569
179.828
120.395
180.345
211.34
162.771
-300.492
-1055.14
-546.764
261.53
630.356
610.412
430.857
337.634
1113.48
4044.71
108.487
186.189
402.028
261.615
146.755
167.36
288.715
356.672
379.458
-6.23614
-644.652
-371.771
139.749
400.872
382.3
359.883
535.905
1497.62
2606.08
79.0248
190.306
403.866
254.573
172.573
229.533
359.3
425.062
466.622
150.055
-315.922
-207.421
56.5673
219.612
216.797
300.35
559.118
1557.53
2860.42
100.529
158.666
374.83
241.119
214.93
257.001
425.514
461.658
476.157
207.568
-123.047
-125.47
-56.5358
23.7478
91.0843
247.61
338.514
958.664
3637.99
165.709
100.918
358.138
218.623
219.317
277.901
463.698
461.175
428.365
197.848
-32.8328
-71.893
-119.702
-148.202
-48.9706
77.3918
170.931
388.877
648.966
210.443
53.5571
284.764
195.357
220.717
276.022
449.075
452.518
370.313
169.562
-16.648
-72.9345
-107.647
-155.512
-80.5852
15.6572
105.343
-60.5253
79.8505
166.146
17.0688
236.761
169.345
204.398
256.341
396.874
447.31
319.37
158.792
7.7649
-102.167
-136.369
-168.874
-96.3593
-8.75389
70.6171
23.3679
175.507
114.429
6.92004
182.232
138.852
183.262
229.058
336.183
450.032
259.479
131.072
6.11325
-123.254
-118.376
-123.025
-76.4264
-19.3502
39.4227
-22.6728
78.1241
70.1291
-1.68513
135.46
107.26
149.419
190.842
283.203
431.848
187.249
106.074
-8.55683
-130.813
-109.76
-87.1095
-37.9407
-14.6657
35.2918
3.47236
82.7225
33.6424
-3.65432
91.2787
74.7262
114.38
152.531
231.167
352.062
92.7818
71.3498
-19.8701
-128.102
-115.806
-80.5236
-24.0781
-9.92072
26.5086
-8.35411
36.5163
-5.34206
-15.2475
50.1739
43.6562
82.532
123.676
193.807
248.536
58.3636
58.4628
-5.18422
-92.605
-104.111
-64.7177
-20.9846
-6.95405
18.5925
-1.12012
22.4331
-17.931
-19.265
-5.2066
-29.4803
-16.2085
4.84123
54.8224
73.2459
5.20643
-9.93105
-12.8081
-36.6169
-48.5122
-23.9137
0.00291119
-4.53751
-2.21151
-10.635
15.899
7687.68
7761.5
7697.19
7601.02
7425.48
7247.73
7026.7
6788.56
6543.52
6318.61
6107.28
5912.21
5735.62
5575.74
5435.54
5311.7
5211.39
5122.21
5071.78
4999.25
4152.51
4233.47
4250.26
4295.88
4311.82
4341.59
4355.09
4369.65
4374.23
4375.01
4371.94
4365.77
4358.25
4349.27
4340.75
4332.71
4327.58
4324.95
4327.67
4337.94
4786.71
4824.83
4814.83
4850.47
4845.23
4861.87
4859.98
4863.44
4860.26
4855.9
4848.78
4839.88
4829.46
4818.41
4806.56
4795.48
4784.68
4774.95
4768.8
4760.15
3379.58
3541.67
3580.81
3699.67
3765
3851.98
3923.38
3994.92
4061.41
4123.22
4180.47
4232.71
4279.72
4322.58
4359.67
4394.23
4421.21
4448.24
4464.15
4484.54
2064.65
2315.44
2411.87
2584.8
2720.95
2867
3011.11
3148.79
3285.47
3415
3538.61
3654.79
3762.38
3862.82
3953.64
4039.28
4112.53
4185.98
4236.04
4294.94
-835.351
-590.85
-454.494
-296.023
-121.803
44.1469
238.684
427.469
634.837
845.892
1065.71
1289.52
1513.37
1736.06
1948.87
2157.98
2348.87
2557.24
2721.99
2988.22
-3299.58
-3431.41
-3426.83
-3547.08
-3607.12
-3730.69
-3819.89
-3934.8
-4005.67
-4049.96
-4036.34
-3968.07
-3837.03
-3643.16
-3398.8
-3107.66
-2815.2
-2509.33
-2286.4
-1868.39
-963.167
-1443.54
-1553.4
-1873.8
-2118.21
-2460.66
-2793.65
-3178.1
-3547.24
-3926.08
-4280.42
-4614.12
-4902.74
-5132.83
-5278.33
-5340.7
-5323.22
-5212.07
-5174.47
-4997.89
3993.16
3524.39
3382.8
3069.37
2851.79
2544.28
2280.77
1984.43
1734.73
1492.35
1296.18
1129.21
1008.97
927.765
893.939
892.136
891.394
937.696
910.691
538.008
7859.52
7792.85
7798.51
7745.11
7769.99
7700.74
7683.98
7570.88
7458.37
7260.43
7011.11
6664.31
6225.48
5708.15
5190.59
4762.9
4473.85
4336.31
4350.14
4069.37
5824.78
5961.67
6035.54
6100.49
6242.57
6303.03
6453.81
6539.01
6663.34
6754.01
6850.2
6923.72
6967.16
6945.75
6845.54
6672.09
6516.9
6412.08
6418.61
6364.56
5165.46
5292.65
5392.05
5406.54
5560.64
5566.2
5692.76
5725.27
5806.65
5847.63
5893.85
5929.34
5972.44
6032.71
6115.12
6212.54
6309.75
6408.31
6477.17
6557.78
3238.7
3368.52
3534.32
3534.1
3755.66
3764.15
3944.44
4007.94
4140.96
4238.38
4349.54
4454.49
4557.84
4661.3
4762.83
4872.07
4976.11
5099.06
5184.6
5310.17
1542.01
1605.17
1815.88
1766.09
2026.77
2001.85
2212.44
2265.41
2424.16
2533.81
2674.83
2812.23
2957.54
3110.59
3265.07
3431.02
3586.21
3762.92
3882.17
4086.73
-525.423
-622.546
-427.486
-595.042
-385.549
-527.413
-390.046
-454.177
-389.448
-398.314
-368.676
-353.421
-327.367
-285.886
-222.572
-105.205
34.882
248.331
421.266
692.453
-285.616
-606.8
-523.156
-855.2
-784.32
-1058.46
-1073.06
-1265.97
-1347.64
-1495.48
-1608.22
-1737.22
-1851.21
-1947.64
-2013.19
-2042.76
-2068.77
-2039.14
-2023.86
-1873.75
3364.61
2923.99
2997.69
2428.65
2405.96
1964.38
1794.1
1468.96
1242.21
978.747
753.472
532.76
341.823
181.228
62.4495
-33.2092
-122.654
-238.401
-409.192
-492.579
5165.84
4723.4
5301.59
4726.05
4935.95
4612.3
4547.36
4320.95
4155.55
3949.6
3757.21
3562.13
3383.49
3232.17
3123.74
3046.03
2984.34
2950.03
2908.73
2817.15
3555.13
1934.48
2713.38
1798.71
1762.97
1269.11
999.457
651.723
378.651
124.996
-73.6862
-220.831
-300.497
-303.502
-213.978
-26.8309
224.263
556.876
982.274
1236.52
55897.1
49422.4
45984.4
41679.7
38090.2
34543.6
31281.8
28183.3
25270.7
22511.5
19895.1
17405.2
15027.7
12747.7
10570.1
8470.12
6370.16
4551.92
2789.89
-113.79
55710.3
49235.6
45797.7
41493.1
37903.9
34357.5
31096
27997.9
25085.6
22327
19711.2
17221.9
14845.1
12565.8
10388.9
8289.58
6190.18
4371.7
2608.88
-294.593
3366.18
1745.86
2524.73
1610.1
1574.16
1080.1
810.082
461.921
188.317
-65.9181
-265.237
-413.038
-493.332
-496.793
-407.448
-220.217
31.1661
364.118
791.11
1047.36
4993.77
4551.6
5130
4554.64
4764.81
4441.45
4376.85
4150.82
3985.88
3780.43
3588.58
3393.99
3215.8
3064.97
2957.17
2880.1
2818.75
2784.21
2742.99
2652.18
3190.48
2751.44
2825.36
2257.47
2235.3
1794.51
1624.86
1300.37
1074.14
811.124
586.09
365.493
174.485
13.824
-104.871
-200.21
-289.377
-405.56
-575.942
-661.524
-419.373
-740.965
-657.328
-990.434
-920.425
-1195.93
-1212
-1406.76
-1490.2
-1640.01
-1754.79
-1886
-2002.3
-2100.92
-2168.19
-2199.17
-2226.5
-2198.44
-2184.22
-2036.27
-684.771
-775.968
-580.876
-744.517
-537.047
-680.934
-547.142
-615.414
-554.882
-568.283
-542.755
-531.907
-510.127
-473.09
-414.115
-300.819
-164.032
46.15
217.807
486.428
1587.25
1699.93
1896.72
1775.99
2021.74
1948.49
2136.72
2161.33
2301.64
2396.31
2522.61
2649.09
2786.24
2933.03
3082.77
3245.08
3397.91
3571.32
3690.08
3887.69
3573.01
3707.7
3890.77
3762.48
3893.34
3844.87
3924.49
3941.48
4020.46
4088.96
4178
4265.29
4357.31
4448.24
4535.49
4628.92
4716.27
4818.22
4887.47
4985.12
5114.87
5251.69
5280.51
5252.9
5253.62
5240.48
5250.26
5261.71
5293.84
5335.08
5387.81
5430.68
5449.77
5464.9
5504.02
5564.48
5626.27
5690.86
5733.7
5782.28
5333.43
5379.54
5351.32
5355.9
5355.46
5372.21
5394.94
5428.77
5470.55
5513.4
5554.13
5602.45
5648.13
5687.65
5703.31
5673.68
5630.95
5606.28
5626.74
5618.49
6162.4
6089.08
6054.1
6060.42
6093.2
6143.02
6194.51
6249.43
6258.2
6214.93
6145.31
6029.28
5867.19
5654.62
5421.87
5229.61
5111.8
5073.46
5103.67
4960.89
4474.31
4195.71
4128.09
4033.03
3959.03
3854.92
3713.3
3516.87
3279.1
3070.51
2901.62
2765.34
2705.68
2690.38
2721.66
2771.46
2818.77
2872.58
2849.84
2635.78
1150.65
917.102
883.511
769.696
661.769
518.414
349.855
193.507
86.6808
24.2353
-66.5472
-195.313
-350.939
-530.034
-710.151
-853.496
-908.176
-885.325
-875.461
-710.639
781.932
825.94
870.46
871.401
859.348
833.641
801.126
777.414
779.8
775.095
731.945
699.242
685.307
710.512
788.42
947.333
1156.84
1416.82
1608.86
1909.71
2817.99
3012.34
3099.23
3211.3
3312.41
3428.86
3564.51
3719.35
3884.73
4055.03
4230.85
4417.93
4605.29
4793.9
4974.63
5151.83
5305.47
5456.13
5565.73
5730.12
4713.81
4854.69
4908.41
5002.06
5080.88
5171.91
5267.64
5367.36
5465.31
5561.66
5657.99
5753.85
5842.04
5923.2
5991.42
6052.31
6097.04
6137.42
6158.58
6172.15
5390.36
5481.87
5514.84
5581.5
5630.19
5683.33
5731.04
5776.67
5818.52
5857.78
5893.49
5926.58
5954.66
5981.93
6003.7
6028.5
6044.76
6070.49
6079.68
6113.12
6571.94
6604.4
6611.44
6635.04
6643.6
6654.26
6659.33
6663.51
6665
6666.23
6665.42
6664.46
6662.4
6664.96
6667.23
6680.17
6687.94
6716.47
6725.84
6778.33
6217.15
6348.1
6400.95
6484.19
6547.53
6608.86
6660.69
6704.17
6742.38
6776.76
6808.84
6840.55
6870.85
6904.95
6937.71
6981.04
7016.9
7075.68
7106.17
7182.19
9858.5
9926.19
9898.11
9869.97
9799.75
9730.72
9627.32
9506.01
9368.5
9240.27
9115.06
8995.55
8881.98
8776.42
8676.55
8586.09
8501.29
8424.17
8361.96
8277.46
)
;

boundaryField
{
    outletWall
    {
        type            fixedValue;
        value           uniform 0;
    }
    fineWalls
    {
        type            zeroGradient;
    }
    fineFrontAndBack
    {
        type            zeroGradient;
    }
    fineplugLeft
    {
        type            cyclicAMI;
        value           nonuniform List<scalar> 
20
(
3785.03
3927.79
3998.82
4103.23
4201.43
4319.65
4445.13
4585.17
4735.43
4897.06
5069.46
5262.17
5421.94
6063.82
6286.94
6313.83
6472
6475.44
6382.1
6017.85
)
;
    }
    fineplugRight
    {
        type            cyclicAMI;
        value           nonuniform List<scalar> 
20
(
6568.14
6738.76
6812.42
6904.88
6977.61
7050.16
7121.32
7196.44
7277.36
7364.54
7458.59
7558.1
7655.51
8376.27
8226.15
8136.41
8200.3
8164.63
8117.29
7868.3
)
;
    }
    inletOutletLeft
    {
        type            cyclicAMI;
        value           nonuniform List<scalar> 
20
(
3785.03
3927.79
3998.82
4103.23
4201.43
4319.65
4445.13
4585.17
4735.43
4897.06
5069.46
5262.17
5421.94
6063.82
6286.94
6313.83
6472
6475.44
6382.1
6017.85
)
;
    }
    inletLeft
    {
        type            zeroGradient;
    }
    inletWallsLeft
    {
        type            zeroGradient;
    }
    inletFacesLeft
    {
        type            zeroGradient;
    }
    inletOutletRight
    {
        type            cyclicAMI;
        value           nonuniform List<scalar> 
20
(
6568.14
6738.76
6812.42
6904.88
6977.61
7050.16
7121.32
7196.44
7277.36
7364.54
7458.59
7558.1
7655.51
8376.27
8226.15
8136.41
8200.3
8164.63
8117.29
7868.3
)
;
    }
    inletRight
    {
        type            zeroGradient;
    }
    inletWallsRight
    {
        type            zeroGradient;
    }
    inletFacesRight
    {
        type            zeroGradient;
    }
}


// ************************************************************************* //
