/*--------------------------------*- C++ -*----------------------------------*\
| =========                 |                                                 |
| \\      /  F ield         | OpenFOAM: The Open Source CFD Toolbox           |
|  \\    /   O peration     | Version:  4.1                                   |
|   \\  /    A nd           | Web:      www.OpenFOAM.org                      |
|    \\/     M anipulation  |                                                 |
\*---------------------------------------------------------------------------*/
FoamFile
{
    version     2.0;
    format      ascii;
    class       volScalarField;
    location    "7";
    object      p;
}
// * * * * * * * * * * * * * * * * * * * * * * * * * * * * * * * * * * * * * //

dimensions      [0 2 -2 0 0 0 0];

internalField   nonuniform List<scalar> 
1280
(
-3.60791
-0.485083
-0.90114
-1.68029
-1.17996
-1.20894
-1.56055
-1.57705
-1.38503
-1.46169
-1.95131
-1.62254
-1.79134
-2.50131
-2.22615
-2.878
-3.89452
-3.53445
-3.70207
-7.59629
-4.05659
2.39648
7.99541
9.70521
11.4753
15.9009
1.97999
11.4601
11.3816
13.2187
14.6383
15.9038
17.4161
18.892
20.5406
21.9113
23.9577
25.0622
30.1155
25.0716
-46.3302
-10.2494
-2.30488
-0.225755
6.59112
7.06353
7.59587
8.1208
7.21504
8.30922
8.50531
7.88381
7.8336
7.81883
7.64031
8.49122
-2.19606
-5.99149
-11.5059
-27.8047
-7.62209
-2.16562
0.00181011
2.93987
5.00135
7.07897
8.78341
10.31
11.5307
12.416
13.2077
13.6812
12.4619
9.99651
27.3587
24.5213
24.3482
15.5086
-8.82837
-24.1157
-22.699
-18.3407
-11.5047
-12.9217
-9.26053
-7.20862
-7.69657
-5.71012
-4.82784
-5.31182
-4.03844
-3.60704
-3.99157
-3.83167
-3.01048
-2.792
-3.77042
-2.08615
-1.28208
-7.56275
4289.24
-1709.47
-1000.76
-43.3108
-32.6264
17.1874
6.69268
0.494326
-0.738129
1.91472
6.21462
2.83398
-0.70446
-4.37294
-3.93947
-1.83958
-1.5062
-2.15667
-3.08783
-1654.12
-496.635
-144.673
-41.2236
-44.7912
-4.17188
-3.51951
-5.04518
-2.98633
-0.345334
-0.818982
-2.5051
-3.77004
-5.22455
-1.97822
-0.768411
-0.788351
-1.34055
-2.00511
511.276
-789.326
210.171
-71.8268
-52.141
1.21215
-3.48356
-8.25948
-4.14529
2.33171
4.5728
-2.33985
-7.48419
-7.31548
-0.633116
0.239013
-0.242282
-0.786323
-1.05134
-303.837
-672.862
-15.3994
-87.6227
-61.3493
-2.04758
-6.75629
-11.8696
-6.2212
5.28346
5.90545
-5.42073
-12.073
-12.1626
-1.46706
0.615249
-0.214316
-1.09542
-1.40541
144.396
-608.103
7.8993
-50.4718
-38.9087
3.4649
-5.28149
-12.5939
-6.66091
7.73319
7.94678
-5.44763
-14.5264
-15.114
-1.38393
1.73923
-0.0290228
-1.67403
-1.8837
127.744
-435.223
49.3078
-4.32093
6.30856
6.37514
-3.36949
-12.2347
-6.03752
9.52417
10.2645
-4.39397
-16.1132
-15.6385
-0.990614
3.25561
0.466175
-1.23422
-2.05612
255.605
-296.922
69.9068
16.3111
32.2048
9.47173
-1.38853
-11.3995
-5.859
9.52507
11.1672
-2.04449
-16.6408
-14.0964
-0.449944
4.41051
0.00849522
-3.3481
-3.89468
271.173
-210.212
79.7504
18.6868
41.3083
11.551
0.623184
-10.5582
-6.41707
7.45157
9.69411
-0.101195
-15.185
-13.9239
-1.22483
5.43414
1.96257
-1.66095
-4.64654
288.659
-172.823
89.574
15.4409
42.4881
13.1184
2.76828
-9.84404
-7.93406
3.19225
5.72055
1.51313
-8.27416
-8.92478
-0.768131
3.36473
4.36578
16.3914
24.1558
290.701
-153.612
87.0222
13.1249
41.7374
14.9099
5.92413
-8.84537
-10.2799
-2.78324
0.464449
2.113
-3.20094
-3.90133
-0.898364
1.24851
6.81031
28.609
20.2701
289.766
-151.973
85.3099
11.7411
42.2241
16.8666
9.3072
-7.8624
-13.0009
-8.79098
-3.7021
4.57431
1.77436
0.398486
-1.11094
0.849755
7.06405
28.0169
18.9909
285.492
-168.057
84.8895
11.79
43.5805
18.7159
11.4609
-8.65543
-16.922
-12.6727
-5.12523
7.40856
4.28971
2.77145
-3.33957
-4.3198
-0.57171
14.2779
25.2027
268.435
-200.613
77.0854
13.9893
43.6139
20.0161
11.2095
-11.8885
-20.3829
-15.8301
-5.12357
6.12645
3.99366
0.164331
-6.23995
-5.47071
-0.0821051
4.92953
0.444076
255.76
-274.626
66.4849
13.7669
37.8206
19.3196
8.52112
-16.0974
-22.3127
-19.5472
-5.72155
3.44384
3.68047
-0.254314
-5.51933
-5.26056
-0.959651
-0.896741
-2.45608
144.316
-395.608
48.5497
-3.22576
16.7738
16.1613
4.17243
-20.0553
-23.1333
-20.249
-5.48811
1.40144
2.64979
-0.625224
-3.81963
-4.18173
-0.857589
-0.000328726
0.237607
158.28
-556.678
12.549
-44.1323
-21.0002
11.0238
0.0361744
-21.5063
-23.8948
-19.891
-5.65836
-0.189104
1.61291
-0.381162
-1.5644
-2.02254
-0.90637
-0.753399
-0.911815
-240.632
-620.062
-8.43071
-78.3439
-49.0377
2.70561
-5.29273
-21.26
-24.1686
-17.76
-4.5415
-0.98229
1.09271
-0.079537
-0.704916
-1.23314
-0.854498
-0.607423
-0.416355
480.689
-725.687
189.276
-71.6744
-43.9823
6.17359
-1.50204
-14.3223
-21.7591
-12.2269
-1.00991
-0.0346877
0.955508
0.136948
-0.427739
-0.64954
-0.580622
-0.489052
-0.508703
-1422.05
-454.25
-106.848
-50.8498
-46.8017
-6.60233
-7.2709
-12.6123
-19.5349
-13.6921
-5.12619
-1.8845
0.227543
0.141105
-0.423614
-0.78405
-0.952558
-0.830518
-0.942512
3812.94
-1535.04
-842.23
-22.4361
-15.7691
30.1368
15.5395
3.6516
-8.66186
-17.3838
-12.4826
-5.8241
-1.52162
-0.214255
-0.586992
-1.02666
-1.38498
-1.2714
-1.4984
95.1829
94.3002
93.6635
92.8609
91.9792
90.9799
90.0379
89.0084
87.8405
86.7551
85.7691
84.8407
84.0013
83.2358
82.566
81.9664
81.4812
81.0307
80.8278
80.3148
77.2646
77.6774
77.8277
78.0082
78.1619
78.2335
78.2953
78.2568
78.2076
78.0962
77.972
77.8126
77.6476
77.4574
77.2745
77.0738
76.8902
76.6969
76.4719
76.3233
84.4925
84.2144
84.0891
83.882
83.7274
83.5336
83.3605
83.1688
82.9813
82.7785
82.5787
82.3642
82.1557
81.9299
81.7175
81.4811
81.2702
81.0211
80.7881
80.5111
82.4208
82.3857
82.3764
82.3298
82.3108
82.2545
82.2153
82.1495
82.0912
82.0136
81.9379
81.8459
81.756
81.647
81.5472
81.4188
81.3144
81.1648
81.0216
80.8555
84.5148
84.386
84.346
84.2461
84.1886
84.0997
84.0318
83.9466
83.8713
83.7853
83.7043
83.614
83.5285
83.4299
83.3427
83.2302
83.1475
83.0111
82.9273
82.745
84.9552
84.8818
84.8672
84.8065
84.7789
84.7258
84.6904
84.6406
84.6001
84.551
84.5073
84.4567
84.4113
84.3564
84.3126
84.2481
84.213
84.127
84.116
83.9896
85.972
85.8946
85.8781
85.8175
85.7887
85.7384
85.7048
85.66
85.6245
85.583
85.5473
85.5074
85.4732
85.4328
85.403
85.3577
85.339
85.2774
85.2915
85.2052
86.6168
86.5548
86.5429
86.4936
86.4717
86.4311
86.4052
86.3696
86.3424
86.3103
86.2833
86.2534
86.2284
86.199
86.1785
86.1467
86.136
86.0932
86.109
86.0574
87.2982
87.238
87.2245
87.1772
87.1549
87.1156
87.0898
87.0554
87.0283
86.9972
86.9704
86.9416
86.9166
86.8885
86.8676
86.8379
86.8249
86.7879
86.7932
86.7531
87.8798
87.8235
87.8096
87.7653
87.7437
87.7062
87.681
87.6479
87.6211
87.5908
87.5638
87.5354
87.5096
87.4816
87.459
87.429
87.4129
87.3769
87.3737
87.3334
88.44
88.3855
88.3709
88.328
88.3063
88.2695
88.2442
88.2114
88.1842
88.154
88.1261
88.0975
88.0702
88.0418
88.017
87.9863
87.9673
87.9304
87.9223
87.8777
88.9615
88.9094
88.8948
88.8538
88.8324
88.797
88.7721
88.7402
88.7134
88.6839
88.656
88.628
88.6001
88.5723
88.5463
88.5162
88.4954
88.4589
88.4484
88.4012
89.459
89.4092
89.3947
89.3555
89.3346
89.3005
89.2763
89.2454
89.2192
89.1907
89.1632
89.1362
89.1083
89.0818
89.0552
89.0267
89.0048
88.9698
88.958
88.9106
89.9329
89.8857
89.8714
89.834
89.8137
89.7811
89.7577
89.728
89.7026
89.6752
89.6484
89.6226
89.5951
89.5702
89.5433
89.517
89.4941
89.4617
89.4488
89.4029
90.3846
90.3406
90.3267
90.2916
90.2723
90.2413
90.2191
90.191
90.1667
90.1407
90.115
90.0905
90.0638
90.0405
90.0134
89.9897
89.9657
89.9365
89.9222
89.8789
90.8037
90.7631
90.7497
90.717
90.6995
90.6705
90.6501
90.6244
90.6018
90.5781
90.5545
90.532
90.5074
90.4864
90.4603
90.4402
90.4154
90.3904
90.3749
90.3355
91.1986
91.1613
91.1466
91.1144
91.0981
91.0697
91.0496
91.0253
91.0033
90.9807
90.9584
90.937
90.9143
90.895
90.8705
90.8546
90.829
90.8108
90.7949
90.7608
91.5981
91.5708
91.5595
91.527
91.514
91.4885
91.4688
91.4463
91.4241
91.4012
91.3777
91.3538
91.3287
91.3048
91.2766
91.2564
91.2223
91.2072
91.181
91.1434
91.8722
91.8631
91.8782
91.8576
91.8578
91.8504
91.8457
91.8405
91.8348
91.8284
91.8208
91.8113
91.7993
91.7845
91.7642
91.7433
91.7047
91.6834
91.6115
91.5546
91.8376
91.7793
91.8174
91.8281
91.8456
91.8633
91.8822
91.9029
91.9256
91.9506
91.9785
92.0095
92.0443
92.0831
92.1266
92.1756
92.2283
92.297
92.3383
92.5014
726.705
644.494
595.583
539.699
490.997
444.03
400.359
359.1
320.236
283.464
248.606
215.47
183.868
153.751
125.186
97.408
70.4178
47.9368
22.776
-12.8889
44.8437
22.7976
31.0724
20.3251
17.8502
11.4635
6.76523
1.70601
-2.66908
-6.59291
-9.80487
-12.2273
-13.685
-13.9857
-12.9587
-10.8505
-7.9798
-3.8746
0.257088
1.53412
36.4805
29.0957
37.1665
29.9777
31.9658
28.4685
27.1684
24.5242
22.1833
19.5237
16.8716
14.2228
11.7813
9.79857
8.39399
7.26962
6.39755
5.66979
4.13183
2.07857
16.4426
9.99978
11.2351
3.21532
2.09277
-3.9068
-7.25813
-12.0182
-16.031
-20.2878
-24.2578
-28.0693
-31.4373
-34.1431
-36.0074
-37.3699
-38.4797
-39.4249
-40.9947
-40.4411
-29.3433
-33.8352
-32.1107
-36.638
-35.3447
-38.5536
-38.6798
-40.5184
-41.3266
-42.4913
-43.3346
-44.0815
-44.5183
-44.4981
-43.9149
-42.8937
-42.0056
-40.6346
-39.5251
-36.5559
-21.7107
-22.9219
-19.4991
-21.3956
-17.9949
-18.922
-16.7478
-16.3585
-14.9784
-13.962
-12.7562
-11.5373
-10.2464
-8.80481
-7.1833
-5.18958
-3.06106
-0.335841
2.00709
5.55314
7.50195
8.45259
11.8174
11.1984
14.7644
14.8924
17.4103
18.5915
20.4385
22.0772
23.8079
25.579
27.3931
29.2855
31.2269
33.2797
35.2956
37.5075
39.223
41.6032
34.9029
36.4574
39.0026
38.7679
41.6111
41.8974
43.9039
44.9825
46.485
47.8925
49.345
50.8346
52.32
53.7821
55.1957
56.6035
57.9831
59.5378
60.7319
62.1602
55.6412
57.7492
59.9373
60.4571
63.1199
63.97
66.1685
67.4786
69.0424
70.0875
70.7175
70.681
69.9447
68.5951
67.0755
65.962
65.9743
66.7506
67.6501
67.6778
74.3216
74.9846
75.6604
75.0722
75.9123
75.0253
74.9498
73.6035
72.2384
70.1202
67.7091
64.9229
61.9782
59.0143
56.3362
54.2563
52.9414
52.12
52.2294
50.4443
63.1596
59.2325
58.2941
55.2454
53.9496
51.2526
49.5501
47.132
45.1144
42.7458
40.36
37.6338
34.6414
31.3775
28.1649
25.2706
23.3558
23.5615
23.744
19.0139
-1.64646
-9.23648
-12.47
-18.2593
-22.3794
-28.0336
-32.9628
-38.5457
-43.4952
-48.3089
-52.4008
-55.8714
-58.4361
-60.068
-60.6231
-60.4364
-59.8646
-58.1354
-58.0998
-58.6995
-51.2419
-56.4841
-58.3156
-61.7559
-63.7388
-66.6698
-68.6459
-70.7633
-72.0446
-72.9182
-73.1569
-72.9533
-72.3304
-71.4337
-70.3786
-69.277
-67.9826
-66.5765
-65.2109
-61.5112
-46.8567
-46.7201
-45.7718
-45.6639
-44.7133
-44.336
-43.4854
-42.865
-42.0787
-41.3254
-40.5341
-39.7277
-38.8774
-37.9247
-36.8148
-35.3492
-33.3774
-29.9803
-27.2522
-23.7021
-25.8879
-23.4248
-20.149
-17.4577
-14.8294
-12.6965
-10.4478
-8.40443
-6.39489
-4.48049
-2.64047
-0.851443
0.895579
2.63166
4.3445
6.06677
7.70489
9.31398
10.5685
12.2077
-2.85081
-0.47703
2.00686
4.26481
6.23529
7.84407
9.45651
10.8729
12.2372
13.4911
14.6545
15.7338
16.7222
17.6366
18.4534
19.2104
19.8374
20.4551
20.8309
21.3706
15.2965
17.0519
17.4344
18.2545
18.9049
19.4986
20.1409
20.6737
21.2281
21.7184
22.1852
22.6151
23.0058
23.375
23.6971
24.0235
24.2832
24.6044
24.8026
25.1634
32.059
32.5755
31.3963
31.1883
30.8499
30.639
30.506
30.3442
30.254
30.1501
30.0796
30.0223
29.9783
29.9659
29.9564
29.9965
30.0272
30.1252
30.1949
30.3318
26.9271
27.9984
27.5239
27.7605
27.8629
28.1096
28.3242
28.421
28.5074
28.5077
28.5071
28.4771
28.4384
28.4082
28.3694
28.3654
28.3539
28.3934
28.4127
28.486
56.967
57.0646
56.9019
56.1002
54.4334
52.504
50.1588
47.6732
45.2701
43.0356
40.9947
39.1403
37.4962
36.0649
34.8338
33.81
32.9889
32.3203
31.9226
31.4353
)
;

boundaryField
{
    outletWall
    {
        type            fixedValue;
        value           uniform 0;
    }
    fineWalls
    {
        type            zeroGradient;
    }
    fineFrontAndBack
    {
        type            zeroGradient;
    }
    fineplugLeft
    {
        type            cyclicAMI;
        value           nonuniform List<scalar> 
20
(
69.2661
70.6853
69.837
69.9765
69.9553
70.1609
70.367
70.6842
71.0533
71.5429
72.0478
72.5487
73.4987
80.025
75.9641
75.8784
76.2298
76.5299
75.9195
75.335
)
;
    }
    fineplugRight
    {
        type            cyclicAMI;
        value           nonuniform List<scalar> 
20
(
23.6238
25.105
25.8566
26.9791
28.0483
29.2828
30.6086
32.059
33.6184
35.279
37.07
38.9523
40.6309
45.5921
47.475
48.451
49.7498
48.6233
43.886
40.7505
)
;
    }
    inletOutletLeft
    {
        type            cyclicAMI;
        value           nonuniform List<scalar> 
20
(
69.2661
70.6853
69.837
69.9765
69.9553
70.1609
70.367
70.6842
71.0533
71.5429
72.0478
72.5487
73.4987
80.025
75.9641
75.8784
76.2298
76.5299
75.9195
75.335
)
;
    }
    inletLeft
    {
        type            zeroGradient;
    }
    inletWallsLeft
    {
        type            zeroGradient;
    }
    inletFacesLeft
    {
        type            zeroGradient;
    }
    inletOutletRight
    {
        type            cyclicAMI;
        value           nonuniform List<scalar> 
20
(
23.6238
25.105
25.8566
26.9791
28.0483
29.2828
30.6086
32.059
33.6184
35.279
37.07
38.9523
40.6309
45.5921
47.475
48.451
49.7498
48.6233
43.886
40.7505
)
;
    }
    inletRight
    {
        type            zeroGradient;
    }
    inletWallsRight
    {
        type            zeroGradient;
    }
    inletFacesRight
    {
        type            zeroGradient;
    }
}


// ************************************************************************* //
