/*--------------------------------*- C++ -*----------------------------------*\
| =========                 |                                                 |
| \\      /  F ield         | OpenFOAM: The Open Source CFD Toolbox           |
|  \\    /   O peration     | Version:  4.1                                   |
|   \\  /    A nd           | Web:      www.OpenFOAM.org                      |
|    \\/     M anipulation  |                                                 |
\*---------------------------------------------------------------------------*/
FoamFile
{
    version     2.0;
    format      ascii;
    class       surfaceScalarField;
    location    "7";
    object      phi;
}
// * * * * * * * * * * * * * * * * * * * * * * * * * * * * * * * * * * * * * //

dimensions      [0 3 -1 0 0 0 0];

internalField   nonuniform List<scalar> 
2360
(
3095.32
3032.72
62.5965
3032.72
3032.72
3193.37
-160.648
3193.37
3193.37
3193.37
3653.84
-460.47
3653.84
3653.84
4400.9
-747.058
4400.9
4400.9
5505.02
-1104.12
5505.02
5505.03
7551.21
-2046.18
7551.23
7551.23
8136.91
9113.63
10090.7
11047.4
12005.3
12970.7
9650.48
4301.12
10651.3
11660.4
12675.5
13695.5
14720
15748.5
16780.6
17815.5
18852.3
19896.6
20985.1
22072.5
22750
7664.1
15085.9
7664.09
7664.1
7664.09
-1915.29
9579.38
-1915.29
-1915.29
-1915.29
-1197.62
-717.671
-1197.62
-1197.62
-539.198
-658.419
-539.192
-539.182
-539.181
-12090.4
11551.2
-12090.4
-12090.4
-12090.4
-26135.8
14045.5
-25818.7
-25388.8
-24866.5
-24272.3
-23611.2
-22885.7
-22096.3
-21242.1
-20322.2
-19335
-18279.7
-17155.2
-15963
-21160.5
6461.75
-19833.8
-18378
-16740.6
-14973.2
-13483
-13097.6
-13097.6
-13097.6
-9263.77
-3833.81
-9263.77
-9263.76
-6958.02
-2305.74
-6958.02
-6958.02
-5559.87
-1398.15
-5559.87
-5559.87
-4768.53
-791.338
-4768.53
-4768.53
-4768.53
-4468.33
-300.196
-4468.33
-4468.33
-4512.16
43.8259
-68729.9
-67312.3
28093.7
-32159.2
-13066.5
84843.3
-13874
8125.47
-7222.14
1380.5
-3827.86
-8828.71
2316.14
-8905.9
2647.65
-681.94
-544.836
3729.6
-3522.49
360.426
-1846.47
-5097.23
1388.51
-5072.19
2027.04
921.436
531.664
4742.58
-317.734
4137.19
-172.192
2249.8
138.655
1985.62
93.724
2756.47
3403.47
5076.74
-58620.7
-6344.38
-20738.1
-6305.28
84804.2
-14429.4
16249.5
-4325.81
-8723.04
-1716.31
-11438.2
1374.62
-11996.8
2220.21
-1527.52
1054.23
4895.57
85.9603
1328.7
1006.72
-6017.98
2195.37
-6260.85
2489.48
627.333
1291.28
5940.78
-23.9894
5452.46
-258.213
2484.03
270.469
1456.95
236.613
2790.33
3339.89
2543.82
-65762.9
-706.036
-17488.3
2626.62
81471.5
-8101.89
26978.1
-3864.91
-12960
-536.816
-14766.3
1366.51
-13900.2
1649.14
-1810.15
1027.27
5517.45
194.285
2161.67
1028.56
-6852.26
2391.75
-7624.04
2626.22
392.865
1658.28
6908.72
501.869
6608.87
67.8627
2918.04
402.783
1122.02
499.177
2693.93
3047.73
-6419.31
-56481.9
-7034.72
-16872.9
2175.76
72261.1
-680.359
29834.2
878.146
-14518.5
1130.27
-15018.4
523.841
-13293.7
-108.408
-1177.9
-354.31
5763.35
-315.64
2123.01
237.846
-7405.74
1125.8
-8512
1699.57
-180.905
1375.38
7232.92
633.772
7350.48
424.933
3126.88
653.993
892.966
913.012
2434.92
2562.59
-8140.09
-49720.4
-11238.8
-13774.2
-1072.08
62094.4
4370.22
24391.9
4779.26
-14927.5
1895.87
-12135
-768.044
-10629.8
-2095.04
149.095
-2085.11
5753.42
-1834.99
1872.88
-1997.68
-7243.05
-1665.13
-8844.56
-205.665
-1640.37
421.995
6605.26
279.621
7492.85
764.426
2642.07
1129.25
528.142
1532.41
2031.75
1789.26
-14459.3
-36655.3
-18618.3
-9615.17
-3847.77
47323.9
6153.99
14390.1
4342.2
-13115.7
286.583
-8079.42
-2770.87
-7572.36
-3969.2
1347.43
-3984.57
5768.8
-4278.11
2166.42
-5339.33
-6181.84
-5240.51
-8943.38
-2716.28
-4164.61
-1065.62
4954.59
-656.259
7083.49
862.162
1123.64
1472.96
-82.6564
2367.41
1137.29
322.854
-15390.8
-24999.6
-19844.6
-5161.33
-3636.07
31115.3
4743.19
6010.86
-430.165
-7942.38
-2766.33
-5743.25
-4874.83
-5463.86
-5752.62
2225.21
-6240.56
6256.73
-7482.79
3408.65
-9294.9
-4369.73
-9422.4
-8815.88
-6388.67
-7198.33
-2992.27
1558.19
-1489.46
5580.68
-471.485
105.66
1464.26
-2018.4
1552.01
1049.53
8336.61
-15256.4
-15025.4
-18238.7
-2179.09
-3499.01
16375.7
-48.4955
2560.36
-4748.43
-3242.44
-5381.67
-5110
-6973.42
-3872.11
-7664.15
2915.94
-8579.95
7172.53
-10542.7
5371.37
-12721.6
-2190.84
-13316.9
-8220.51
-11360.4
-9154.86
-6930.14
-2872.08
-4326.94
2977.48
-5888.66
1667.38
-8119.09
212.024
-10501.9
3432.32
11880.2
-15355.7
-7126.45
-16816.9
-717.906
-8018.1
7576.85
-5929.42
471.68
-6848.75
-2323.11
-7982.28
-3976.48
-9497.67
-2356.71
-10219.1
3637.32
-11183.2
8136.72
-12879.3
7067.44
-14347
-723.132
-15028.4
-7539.14
-15585.8
-8597.4
-15060.5
-3397.46
-14290.7
2207.66
-15088.1
2464.83
-15721.1
844.998
-14670.5
2381.73
8760.87
-17227.8
345.145
-17799
-146.773
-10720.6
498.521
-8573.49
-1675.46
-8457.39
-2439.21
-10211.7
-2222.18
-12373.8
-194.641
-13504.4
4767.92
-14002.9
8635.26
-13953.4
7017.95
-13385.9
-1290.64
-13475.5
-7449.6
-14896.5
-7176.41
-15606.3
-2687.63
-15154.9
1756.24
-14088.7
1398.66
-12345.8
-897.885
-8395.75
-1568.36
-293.293
-17040.1
7745.35
-17650.1
463.24
-10619.7
-6531.83
-8626.9
-3668.29
-9030.32
-2035.8
-11367.3
114.845
-14243.2
2681.22
-15971.3
6496.01
-15703.8
8367.8
-12804.8
4118.94
-9729.48
-4365.99
-9993.71
-7185.37
-13370.9
-3799.17
-15317.9
-740.698
-15267.3
1705.67
-14573.1
704.431
-13125.4
-2345.56
-8946.97
-5746.8
-9957.93
-14859.2
15271.1
-16317.4
1921.4
-7995.66
-14853.5
-6324.47
-5339.49
-8255.58
-104.701
-10620.8
2480.02
-13735.6
5796.07
-15416
8176.36
-13668.9
6620.7
-8664.58
-885.363
-4923.41
-8107.16
-5244.35
-6864.43
-9902.09
858.571
-13496.1
2853.29
-14285.9
2495.51
-13866.9
285.431
-13608.3
-2604.21
-13334.6
-6020.48
-13713.1
-14460.4
24411.4
-17372.7
4833.69
-4320.3
-27905.9
-1444.03
-8215.77
-6476.03
4927.3
-8559.91
4563.9
-11465.7
8701.88
-12442.2
9152.83
-9795.22
3973.74
-5836.66
-4843.92
-3550.19
-10393.6
-2549.22
-7865.39
-4722.32
3031.66
-6820.82
4951.79
-5637.89
1312.58
-3619.94
-1732.52
-4143.01
-2081.14
-8550.2
-1613.29
-7177.41
-14557.2
35086.2
-18954.4
9230.86
-3721.89
-43138.4
2815
-14752.7
-3617.25
11359.5
-6161.14
7107.79
-8577.15
11117.9
-8888.6
9464.28
-6223.27
1308.42
-3532.73
-7534.47
-2062.22
-11864.2
-815.139
-9112.48
-787.709
3004.23
-1779.98
5944.05
-735.074
267.672
1039.8
-3507.39
2050.05
-3091.39
2392.7
-1955.94
-483.586
-13940.5
47352.5
-18238.5
13528.8
-4116.09
-57260.7
4653.58
-23522.3
769.12
15244
-3539.14
11416
-5784.92
13363.7
-5691.15
9370.51
-3319.11
-1063.62
-1509.72
-9343.85
-726.685
-12647.2
-596.17
-9242.99
618.883
1789.17
1182.8
5380.13
1399.2
51.2723
1546.13
-3654.32
1326.01
-2871.27
1374.01
-2003.94
-1155.75
-8142.19
53890.9
-11404.1
16790.8
-1525.95
-67138.9
3540.89
-28589.2
2002.25
16782.6
-1684.49
15102.8
-3368.52
15047.7
-2819.37
8821.35
-1059.61
-2823.37
80.4701
-10483.9
28.3082
-12595
-1050.11
-8164.57
51.1763
687.884
1367.71
4063.6
1578.41
-159.421
1016.29
-3092.21
718.453
-2573.43
791.9
-2077.38
-1467.97
-6066.8
62364.2
-6763.7
17487.7
2114.79
-76017.4
-586.843
-25887.5
-550.988
16746.8
-1438.35
15990.1
-1622.48
15231.8
-638.02
7836.9
473.079
-3934.47
1161.82
-11172.7
194.261
-11627.5
-1447.38
-6522.93
-888.017
128.524
634.552
2541.03
1032.41
-557.27
318.233
-2378.03
115.839
-2371.04
296.538
-2258.08
-1918.49
2350.66
55445.7
-244.637
20083
3137.85
-79399.9
-7394.82
-15354.9
-4197.56
13549.5
-1930.07
13722.6
-246.881
13548.7
1303.21
6286.81
1958.23
-4589.5
1708.7
-10923.1
-282.098
-9636.67
-1808.55
-4996.48
-1104.71
-575.312
249.862
1186.46
549.035
-856.438
183.916
-2012.91
189.961
-2377.08
212.087
-2280.21
-2166.87
5078.73
62978.4
-5205.94
30367.6
-5415.15
-79190.7
-14240.9
-6529.15
-4387.7
3696.36
-1978.35
11313.3
499.031
11071.3
2706.56
4079.28
3285.44
-5168.38
1439.59
-9077.29
-1063.4
-7133.68
-1996.34
-4063.54
-1163.11
-1408.54
-70.2837
93.632
299.181
-1225.9
216.493
-1930.22
124.894
-2285.48
-0.374426
-2154.94
-2327.89
-65385.6
26295.5
-13513
-16157.5
-8795.12
-4718.48
1294.99
3590.43
2880.93
385.325
-873.762
-1070.11
-846.932
-136.134
156.846
128.366
17.746
-21.9199
19.1409
-604.796
112.114
-1069.67
175.805
-1040.8
229.023
-1009.81
278.817
-1007.72
320.577
-1007.18
341.016
-1001.32
341.843
-1001.64
336.737
-1004.04
327.195
-1005.6
314.471
-1007.32
299.012
-1009.07
281.346
-1010.79
261.93
-1012.75
240.895
-1013.84
218.548
-1014.45
198.685
-1024.4
188.617
-1078.43
153.5
-1052.29
-524.058
38.7081
-643.504
35.6796
-1066.64
21.6441
-1026.76
16.5577
-1004.72
15.4381
-1006.6
15.023
-1006.77
23.3009
-1009.6
30.9482
-1009.28
36.8631
-1009.96
41.7457
-1010.48
45.7722
-1011.35
48.9057
-1012.21
51.1675
-1013.05
52.6207
-1014.2
53.2542
-1014.47
53.4743
-1014.67
55.4636
-1026.39
57.5508
-1080.51
41.2348
-1035.98
-482.823
23.3533
-666.856
27.1228
-1070.41
26.3327
-1025.97
27.5214
-1005.91
28.3037
-1007.38
28.8307
-1007.29
27.0389
-1007.81
25.8217
-1008.07
24.7426
-1008.88
23.586
-1009.32
22.2707
-1010.04
20.7764
-1010.71
19.1236
-1011.4
17.2798
-1012.36
15.2804
-1012.47
13.2239
-1012.62
10.8284
-1024
8.57055
-1078.26
4.90774
-1032.31
-477.915
14.672
-681.529
12.3383
-1068.08
7.23366
-1020.87
4.19305
-1002.87
1.45686
-1004.65
-1.12305
-1004.71
-3.18532
-1005.75
-5.30867
-1005.94
-7.48701
-1006.7
-9.68004
-1007.13
-11.8997
-1007.82
-14.1861
-1008.43
-16.5211
-1009.07
-18.9744
-1009.91
-21.3897
-1010.06
-23.9304
-1010.07
-28.5459
-1019.38
-35.6249
-1071.18
-28.8584
-1039.08
-506.773
11.5804
-693.11
8.53405
-1065.03
4.55203
-1016.89
1.1887
-999.505
-2.34832
-1001.11
-5.84415
-1001.22
-9.54589
-1002.05
-13.2145
-1002.27
-16.9371
-1002.98
-20.6902
-1003.38
-24.4998
-1004.01
-28.3783
-1004.55
-32.3077
-1005.14
-36.3398
-1005.87
-40.251
-1006.15
-44.1891
-1006.14
-51.8576
-1011.71
-65.4586
-1057.58
-52.1714
-1052.37
-558.945
11.5952
-704.706
8.33356
-1061.77
4.23837
-1012.79
0.885924
-996.154
-2.62024
-997.606
-6.11552
-997.725
-9.69401
-998.468
-13.3312
-998.638
-17.0695
-999.239
-20.8906
-999.555
-24.8084
-1000.09
-28.8378
-1000.52
-32.9659
-1001.01
-37.2467
-1001.59
-41.4855
-1001.91
-45.6422
-1001.98
-53.1774
-1004.18
-70.1406
-1040.61
-59.7344
-1062.77
-618.679
13.6198
-718.326
10.4468
-1058.6
6.47827
-1008.82
3.50803
-993.184
0.407473
-994.506
-2.70204
-994.616
-5.91482
-995.256
-9.16699
-995.387
-12.504
-995.903
-15.9056
-996.154
-19.3882
-996.609
-22.96
-996.949
-26.6089
-997.36
-30.3856
-997.817
-34.1696
-998.124
-37.8106
-998.34
-43.246
-998.744
-58.781
-1025.08
-55.8215
-1065.73
-674.501
16.0904
-734.417
12.9282
-1055.44
8.95946
-1004.86
6.44505
-990.67
3.84651
-991.907
1.23514
-992.005
-1.44965
-992.571
-4.15751
-992.679
-6.92845
-993.132
-9.73963
-993.343
-12.6054
-993.743
-15.5291
-994.026
-18.4983
-994.391
-21.5523
-994.763
-24.6195
-995.057
-27.6057
-995.353
-31.1871
-995.163
-42.6787
-1013.59
-45.6008
-1062.81
-720.102
18.1273
-752.545
14.6969
-1052.01
10.7822
-1000.94
8.63017
-988.518
6.42366
-989.701
4.20353
-989.785
1.93052
-990.299
-0.345142
-990.404
-2.66139
-990.816
-4.99313
-991.012
-7.35457
-991.382
-9.74503
-991.636
-12.152
-991.985
-14.6067
-992.309
-17.0556
-992.608
-19.4779
-992.931
-21.9969
-992.644
-29.6245
-1005.96
-35.0461
-1057.39
-755.148
19.3825
-771.927
15.4854
-1048.11
11.7089
-997.165
9.8264
-986.635
7.88999
-987.765
5.94259
-987.838
3.95496
-988.311
1.97501
-988.424
-0.0338175
-988.807
-2.04479
-989.001
-4.07308
-989.354
-6.11492
-989.594
-8.15848
-989.941
-10.232
-990.235
-12.2852
-990.555
-14.3364
-990.88
-16.3423
-990.638
-21.5777
-1000.72
-27.4214
-1051.55
-782.569
19.9774
-791.905
15.5019
-1043.63
11.9414
-993.605
10.2447
-984.939
8.48133
-986.002
6.71041
-986.067
4.90539
-986.506
3.11187
-986.63
1.29403
-986.99
-0.51997
-987.187
-2.34767
-987.526
-4.18201
-987.76
-6.01398
-988.109
-7.86971
-988.38
-9.69934
-988.725
-11.5444
-989.035
-13.2966
-988.886
-17.3107
-996.711
-23.0945
-1045.76
-805.664
20.1528
-812.057
15.0654
-1038.55
11.7642
-990.304
10.1999
-983.374
8.55247
-984.354
6.90169
-984.416
5.21936
-984.824
3.54933
-984.96
1.85563
-985.296
0.167837
-985.499
-1.53478
-985.824
-3.24091
-986.053
-4.94694
-986.403
-6.67432
-986.652
-8.37637
-987.023
-10.1072
-987.304
-11.7253
-987.268
-15.1179
-993.318
-21.021
-1039.86
-826.685
20.1255
-832.182
14.4204
-1032.84
11.3951
-987.278
9.92966
-981.909
8.36893
-982.793
6.80851
-982.855
5.21767
-983.233
3.63888
-983.381
2.03601
-983.693
0.439765
-983.903
-1.17364
-984.21
-2.78821
-984.438
-4.40741
-984.784
-6.04487
-985.015
-7.66157
-985.407
-9.3141
-985.652
-10.8457
-985.736
-13.8646
-990.299
-20.1185
-1033.61
-846.803
20.0239
-852.206
13.7003
-1026.52
10.9549
-984.532
9.5705
-980.524
8.08429
-981.307
6.60162
-981.372
5.0888
-981.72
3.5876
-981.88
2.06186
-982.167
0.542571
-982.383
-0.995864
-982.671
-2.5333
-982.901
-4.08115
-983.236
-5.64218
-983.453
-7.18969
-983.859
-8.77495
-984.066
-10.2378
-984.273
-12.969
-987.567
-19.7125
-1026.86
-866.516
19.9164
-872.122
12.9664
-1019.57
10.5006
-982.066
9.18747
-979.211
7.77136
-979.89
6.36174
-979.962
4.92076
-980.278
3.49105
-980.45
2.03689
-980.712
0.5878
-980.934
-0.880923
-981.202
-2.34684
-981.435
-3.82907
-981.754
-5.31667
-981.966
-6.80105
-982.374
-8.3195
-982.548
-9.7209
-982.872
-12.19
-985.098
-19.4807
-1019.57
-885.996
19.8474
-891.969
12.2564
-1011.98
10.0752
-979.885
8.83367
-977.969
7.48965
-978.546
6.15508
-978.628
4.7841
-978.907
3.42207
-979.087
2.03533
-979.325
0.649137
-979.547
-0.756367
-979.797
-2.15948
-980.031
-3.58423
-980.329
-5.00427
-980.545
-6.4352
-980.943
-7.88692
-981.096
-9.23426
-981.524
-11.4517
-982.881
-19.2937
-1011.73
-905.29
19.8684
-911.838
11.6139
-1003.72
9.74472
-978.016
8.60133
-976.825
7.3497
-977.294
6.11139
-977.389
4.82734
-977.623
3.54415
-977.804
2.23375
-978.015
0.913391
-978.227
-0.429204
-978.454
-1.77759
-978.683
-3.15551
-978.951
-4.5256
-979.175
-5.93016
-979.538
-7.33389
-979.692
-8.6681
-980.19
-10.6728
-980.876
-19.0391
-1003.36
-924.329
20.0767
-931.914
11.1017
-994.746
9.58944
-976.503
8.6044
-975.84
7.48275
-976.173
6.37103
-976.277
5.20235
-976.454
4.01713
-976.619
2.79933
-976.797
1.55801
-976.985
0.289456
-977.185
-0.996937
-977.396
-2.31814
-977.629
-3.63925
-977.854
-5.02023
-978.157
-6.37929
-978.333
-7.75887
-978.81
-9.59855
-979.036
-18.4203
-994.542
-942.749
20.7987
-952.713
11.0692
-985.016
9.96438
-975.398
9.25129
-975.127
8.35693
-975.278
7.43165
-975.352
6.42341
-975.446
5.352
-975.547
4.21288
-975.658
3.00874
-975.781
1.74148
-975.918
0.416915
-976.072
-0.967324
-976.245
-2.38489
-976.436
-3.87409
-976.668
-5.32782
-976.879
-6.87834
-977.26
-8.5309
-977.384
-17.5626
-985.51
-960.312
22.2872
12.271
11.8726
11.7457
11.4675
11.1156
10.6696
10.1225
9.46464
8.68361
7.76557
6.69393
5.44902
4.01262
2.34449
0.465329
-1.79425
-4.17797
-14.6881
-663.215
1638.23
-1069.54
1381.34
-1484.74
1390.21
-1813.92
1304.2
-2103.02
1264.12
-2340.53
1212.52
-2534.78
1169.26
-2685.77
1126.01
-2796.15
1085.38
-2866.93
1045.79
-2898.55
1006.63
-2889.66
966.117
-2836.57
921.919
-2732.15
870.588
-2566.24
809.089
-2328.23
736.997
-2004.01
650.787
-1557.5
528.492
-918.346
335.845
56.6538
-191.341
1829.59
-438.615
1628.63
-699.227
1650.84
-923.127
1528.11
-1139.99
1480.99
-1328.48
1401.02
-1497.71
1338.5
-1643.9
1272.21
-1769.26
1210.75
-1871.35
1147.89
-1943.77
1079.05
-1971.41
993.77
-1931.36
881.874
-1803.31
742.551
-1585.19
590.972
-1291.21
443.022
-932.121
291.705
-524.655
121.033
-143.039
-45.7514
-86.3848
-183.813
2013.42
-393.838
1838.67
-568.084
1825.09
-710.28
1670.32
-843.068
1613.79
-950.665
1508.63
-1048.14
1435.98
-1130.68
1354.76
-1203.41
1283.5
-1263.42
1207.9
-1305.17
1120.81
-1312.11
1000.72
-1256.8
826.567
-1111.08
596.845
-884.604
364.502
-648.976
207.405
-442.248
84.9852
-224.406
-96.7961
-32.7249
-237.409
-119.11
-49.5135
2062.93
-137.339
1926.5
-199.545
1887.3
-249.045
1719.83
-298.346
1663.09
-332.459
1542.75
-364.069
1467.59
-385.475
1376.17
-401.55
1299.58
-411.072
1217.43
-417.625
1127.37
-425.771
1008.88
-441.296
842.098
-462.384
617.94
-478.365
380.491
-483.533
212.582
-480.949
82.4059
-440.507
-137.234
-348.41
-329.501
-467.52
72.4142
1990.53
23.4029
1975.53
28.8291
1881.89
44.455
1704.22
64.4902
1643.07
93.8468
1513.41
129.362
1432.09
174.512
1331.04
228.696
1245.41
290.773
1155.37
355.177
1062.98
407.294
956.773
421.605
827.803
370.774
668.788
262.509
488.782
167.676
307.447
124.249
125.882
71.0278
-83.9687
-17.3599
-241.084
-484.88
156.638
1833.89
131.684
2000.48
166.409
1847.16
213.783
1656.85
272.115
1584.74
331.016
1454.51
398.171
1364.93
470.802
1258.41
552.755
1163.45
641.848
1066.28
735.159
969.659
822.222
869.712
885.472
764.546
902.105
652.158
857.521
533.359
757.944
407.027
609.031
274.78
398.39
126.657
198.902
-41.6126
-285.978
163.399
1670.5
172.175
1991.72
210.632
1808.72
262.937
1604.56
327.949
1519.73
388.605
1393.88
454.682
1298.86
520.756
1192.36
589.607
1094.6
657.617
998.286
722.109
905.166
777.539
814.297
817.047
725.033
832.285
636.928
815.36
550.28
757.515
464.871
649.592
382.702
479.902
296.343
249.403
188.878
-36.5758
111.821
1558.68
154.337
1949.21
202.752
1760.3
261.465
1545.86
329.581
1451.61
398.238
1325.23
469.283
1227.81
540.063
1121.59
609.707
1024.95
677.557
930.444
743.647
839.066
807.958
749.989
868.837
664.142
919.442
586.32
944.478
525.233
917.296
492.04
810.941
489.059
607.441
499.837
321.068
475.24
284.491
23.4242
1535.28
80.605
1892.06
138.86
1702.06
182.602
1502.15
224.754
1409.47
263.527
1286.5
305.554
1185.79
360.603
1066.58
437.079
948.471
544.615
822.944
685.449
698.218
854.275
581.184
1031.9
486.493
1183.19
435.034
1259.29
449.101
1215.47
535.851
1034.41
670.099
731.587
802.628
365.525
841.26
650.016
-128.253
1663.52
-124.174
1887.96
-139.548
1717.42
-210.205
1572.79
-298.142
1497.4
-403.333
1391.69
-501.414
1283.86
-577.38
1142.55
-618.738
989.808
-620.439
824.643
-582.49
660.244
-506.596
505.278
-397.689
377.55
-263.287
300.604
-111.615
297.383
46.0587
378.136
173.401
542.723
213.204
762.796
130.239
924.194
780.255
-183.612
1847.12
-335.631
2039.98
-475.92
1857.71
-654.971
1751.84
-857.087
1699.51
-1077.13
1611.72
-1297.68
1504.4
-1510.02
1354.89
-1711.59
1191.37
-1904.47
1017.52
-2087.67
843.446
-2249.46
667.056
-2364.94
493.03
-2393.5
329.159
-2288.41
192.291
-2024.87
114.589
-1598.06
115.91
-1015.06
179.794
-396.921
306.049
383.333
118.825
1728.29
-36.099
2194.9
-209.087
2030.68
-340.304
1883.06
-453.698
1812.89
-567.535
1725.55
-687.585
1624.44
-816.907
1484.2
-954.502
1328.95
-1098.93
1161.92
-1248.14
992.646
-1398.8
817.69
-1543.18
637.404
-1665.41
451.369
-1741.3
268.179
-1736.5
109.787
-1663.98
43.3857
-1299.99
-184.187
-693.846
-300.098
-310.513
481.964
1246.33
563.396
2113.48
453.621
2140.45
387.57
1949.13
388.996
1811.45
414.63
1699.94
440.093
1598.96
445.102
1479.21
427.002
1347.03
385.408
1203.52
323.042
1054.99
238.845
901.874
131.684
744.526
1.8523
581.166
-138.387
408.333
-240.286
211.399
-116.094
-81.0694
-171.879
-128.476
-180.227
-291.798
-490.74
514.139
732.212
718.374
1909.28
708.186
2150.66
696.698
1960.65
746.142
1762.02
829.704
1616.42
923.267
1505.4
1005.82
1396.7
1070.06
1282.79
1112.14
1161.48
1131.87
1035.25
1127.76
906.021
1097.12
775.151
1035.6
642.684
935.824
508.075
779.7
367.497
476.804
221.774
292.654
55.6135
145.072
-144.279
-345.668
244.833
487.399
327.542
1826.6
363.082
2115.12
405.994
1917.77
469.352
1698.66
545.445
1540.36
623.747
1427.1
694.245
1326.23
751.13
1225.89
790.674
1121.97
810.886
1015.02
810.523
906.403
788.535
797.119
744.122
687.101
676.332
575.842
583.726
460.086
468.026
337.449
328.967
194.619
165.376
19.2465
-180.295
-17.1326
504.513
-43.5823
1853.05
13.1439
2058.38
87.8278
1843.11
156.44
1630.04
218.889
1477.94
275.349
1370.62
325.143
1276.47
365.962
1185.04
396.012
1091.95
413.398
997.593
417.483
902.351
407.839
806.699
385.041
709.919
349.331
611.479
301.61
507.812
242.404
396.518
170.734
266.103
86.3973
103.328
-93.8961
-65.0729
569.644
-92.6216
1880.63
-42.0192
2007.81
17.4534
1783.67
66.9376
1580.58
107.296
1437.62
142.193
1335.75
173.326
1245.38
200.113
1158.28
221.592
1070.51
236.201
983.013
243.219
895.361
242.129
807.825
233.054
719.013
216.006
628.569
191.229
532.591
158.717
429.108
116.974
307.918
67.6364
152.804
-26.2595
22.0107
547.648
64.6645
1837.99
95.6931
1976.78
132.806
1746.57
168.013
1545.38
193.032
1412.62
210.42
1318.37
225.251
1230.57
238.283
1145.25
249.142
1059.68
256.123
976.026
258.503
893.001
255.238
811.083
246.09
728.172
230.377
644.28
207.764
555.199
177.529
459.356
137.951
347.5
87.1863
203.581
60.9262
141.919
405.737
212.747
1767.17
190.365
1999.17
151.348
1785.6
131.957
1564.77
127.491
1417.1
134.092
1311.77
142.669
1222.01
150.804
1137.11
157.729
1052.77
162.617
971.132
164.581
891.05
162.562
813.091
155.478
735.264
142.346
657.4
121.566
575.976
92.3476
488.565
52.1467
387.687
7.44323
248.25
68.369
20.3557
297.307
529.057
677.268
786.152
876.58
924.078
953.897
966.614
964.034
947.971
919.16
878.075
823.945
755.817
670.724
565.086
430.479
248.729
)
;

boundaryField
{
    outletWall
    {
        type            calculated;
        value           nonuniform List<scalar> 
60
(
-4512.16
-3265.92
-2711.54
-2296.47
-2395.35
-3287.79
-3247.21
-1559.97
1837.22
3421.2
2617.23
-537.112
350.429
2761.91
5434.44
-8032.36
-7317.99
-43683.1
-64664.3
117278
17705.4
-12611.4
4567.81
-2406.52
1603.86
1674.14
3882.39
5320.14
7333.42
9639.85
9756.23
7456.79
5282.27
3735.06
1394.11
1378.58
-2861.66
4598.38
-13768.3
18764.4
-3095.32
-2287.21
-2115.27
-2174.86
-1901.74
-1518.88
-617.165
-1631.72
-3867.19
-5874.6
-6581.69
-4458.87
1783.83
5057.8
7236.66
-3666.05
-3884.63
-39382.1
-61313.5
110659
)
;
    }
    fineWalls
    {
        type            calculated;
        value           uniform 0;
    }
    fineFrontAndBack
    {
        type            calculated;
        value           nonuniform List<scalar> 
960
(
5.48273e-18
-6.54005e-17
1.67373e-16
-7.56017e-16
1.94449e-14
-1.17681e-14
4.33817e-14
-1.11397e-13
9.36371e-14
2.19521e-13
3.09455e-13
-4.31694e-13
-4.31894e-13
-4.15559e-13
-5.41426e-12
-1.33491e-12
-1.23515e-12
-5.38727e-12
-7.56186e-13
-1.22595e-12
-3.07634e-14
-4.68954e-13
-5.52896e-13
-5.97118e-13
-5.83258e-13
-7.95492e-13
-1.22257e-11
-9.02327e-13
-9.09692e-13
-9.12784e-13
-9.32657e-13
-9.55612e-13
-9.58584e-13
-9.7948e-13
-1.0084e-12
-1.0172e-12
-1.02328e-12
-1.03483e-12
-9.42479e-13
-1.18523e-12
-2.37989e-11
-2.87971e-12
-2.68557e-12
-2.76062e-12
-8.54825e-12
-8.3245e-13
-9.33864e-13
-7.91625e-13
-1.15335e-11
-3.74739e-12
-1.70902e-12
-8.46502e-13
-9.27637e-13
-7.09788e-13
-3.64721e-13
1.07761e-12
6.93577e-13
8.10018e-13
1.01648e-12
1.52716e-11
9.76855e-13
6.37723e-13
6.26762e-13
5.51275e-13
5.0316e-13
4.35344e-13
3.67365e-13
3.14464e-13
2.74518e-13
2.34465e-13
1.98971e-13
1.6677e-13
1.35779e-13
-4.68615e-13
4.17621e-14
-1.83737e-14
-4.4962e-14
-7.88006e-14
-1.25031e-13
-2.47214e-13
-1.14512e-12
-1.32256e-12
-7.87183e-12
-1.87618e-12
-1.90096e-12
-9.35551e-12
-1.62025e-12
-1.74161e-12
-7.1127e-12
-1.06331e-12
-1.19346e-12
-3.04217e-12
2.04865e-13
2.45713e-13
2.23987e-13
1.22948e-12
2.22343e-13
2.44197e-13
7.46755e-13
-2.22131e-14
-4.41266e-09
5.34403e-10
3.40445e-10
-3.3717e-11
6.34605e-12
3.6992e-12
8.33241e-12
1.21748e-11
4.09157e-12
2.85705e-14
-3.94135e-13
5.09283e-13
7.1427e-13
-5.97288e-15
-3.31266e-14
1.04414e-14
-1.49375e-15
-1.07612e-15
3.43899e-14
3.29943e-10
2.49454e-10
4.53771e-10
-4.07169e-11
-6.43332e-13
7.25462e-12
1.8396e-11
2.69003e-11
1.36966e-11
2.78081e-12
1.98517e-12
2.89819e-12
3.08101e-12
7.78905e-13
-8.70905e-14
-2.36254e-14
1.05162e-14
2.3095e-15
-7.05141e-14
-5.46788e-10
2.77416e-10
4.88779e-10
4.61028e-11
9.37207e-12
9.02415e-12
3.32739e-11
4.83229e-11
2.73116e-11
8.36438e-12
5.63201e-12
5.2023e-12
4.43362e-12
2.35132e-12
4.34335e-13
-1.18382e-13
-3.14297e-14
1.15139e-14
1.26394e-13
-2.17783e-10
3.27652e-10
4.82923e-10
1.01422e-10
3.40228e-11
1.47601e-11
4.88632e-11
6.43573e-11
3.96457e-11
1.33943e-11
8.50464e-12
5.55438e-12
3.05656e-12
3.29128e-12
1.38379e-12
1.25112e-13
-9.60386e-14
-8.18125e-14
1.18666e-12
-2.2386e-10
2.38058e-10
3.88627e-10
1.02955e-10
3.69588e-11
2.70709e-11
6.16632e-11
6.45156e-11
4.72138e-11
1.95342e-11
8.2297e-12
3.54941e-12
8.31529e-13
3.07204e-12
1.9781e-12
6.37875e-13
1.57941e-13
-4.40271e-13
3.5875e-12
-1.39762e-10
1.39056e-10
2.11718e-10
7.2314e-11
3.94539e-11
4.90843e-11
6.74324e-11
5.92582e-11
4.92743e-11
2.45695e-11
6.66521e-12
1.94036e-12
7.49916e-13
1.23163e-12
2.00494e-12
1.06854e-12
8.17836e-13
-1.10751e-12
4.58315e-12
-1.13768e-10
5.4071e-11
5.32717e-11
4.76376e-11
4.54342e-11
6.9664e-11
6.10085e-11
5.25128e-11
4.67101e-11
2.50004e-11
3.64644e-12
-6.33187e-13
-3.16074e-13
1.18871e-13
7.96943e-13
1.35495e-12
4.28059e-12
2.28931e-12
-5.48158e-12
-7.60486e-11
2.23318e-11
-1.59741e-11
4.92223e-11
5.34516e-11
6.14494e-11
4.94142e-11
4.35047e-11
4.01042e-11
2.15116e-11
-2.99589e-12
-1.01746e-11
-6.60836e-12
7.69443e-13
1.29509e-12
4.74081e-12
8.53098e-12
9.7197e-12
1.31399e-11
-6.15774e-11
3.27179e-11
-6.75117e-12
5.36405e-11
4.29563e-11
4.19986e-11
3.76465e-11
3.09286e-11
2.40998e-11
9.83821e-12
-1.88454e-11
-3.21232e-11
-2.1746e-11
-1.92628e-12
6.01784e-12
6.74271e-12
8.77221e-12
9.61566e-12
8.43725e-12
-7.0057e-11
4.80142e-11
4.68473e-12
2.51327e-11
1.77428e-11
2.6505e-11
3.42963e-11
3.69237e-11
1.81522e-11
-7.05433e-12
-4.45476e-11
-5.35985e-11
-3.97471e-11
-1.8192e-11
-8.74668e-13
-2.50179e-12
-4.535e-12
-2.71097e-12
8.19881e-13
-1.61025e-10
1.8526e-11
-3.27405e-11
-2.80004e-12
1.04853e-11
3.54559e-11
3.20876e-11
1.33412e-11
-1.10494e-12
-3.11195e-11
-4.82953e-11
-4.07365e-11
-4.21576e-11
-4.45732e-11
-3.72356e-11
-3.39119e-11
-3.38452e-11
-3.14915e-11
-2.6091e-11
-2.03688e-10
2.03008e-11
-4.86208e-11
-2.18177e-11
-2.73499e-11
-9.68408e-12
-3.94833e-12
-1.30144e-11
-2.55734e-11
-4.01088e-11
-3.67533e-11
-2.5453e-11
-2.57818e-11
-3.6512e-11
-3.44966e-11
-2.98237e-11
-2.73617e-11
-2.81665e-11
-2.68998e-11
-2.32024e-10
1.34331e-11
-5.30998e-11
-1.59238e-11
-3.50965e-11
-3.59138e-11
-2.89142e-11
-3.24074e-11
-4.30212e-11
-5.25529e-11
-4.83512e-11
-2.84207e-11
-1.84434e-11
-2.82676e-11
-2.35718e-11
-1.35717e-11
-1.09703e-11
-1.58961e-11
-2.69035e-11
-2.61226e-10
5.00599e-12
-6.79279e-11
-2.02209e-11
-2.89178e-11
-4.99865e-11
-4.57563e-11
-4.63244e-11
-5.53183e-11
-6.30591e-11
-4.99775e-11
-2.13711e-11
-6.68965e-12
-2.03266e-11
-2.05953e-11
-9.21463e-12
-3.66679e-12
1.58913e-13
2.1128e-12
-2.6859e-10
-1.72727e-11
-1.0882e-10
-3.20865e-11
-1.26755e-11
-4.41561e-11
-5.70817e-11
-5.78278e-11
-6.48244e-11
-6.70083e-11
-4.3356e-11
-1.36373e-11
-1.05295e-12
-9.63906e-12
-1.27154e-11
-4.08345e-12
9.44202e-13
1.79153e-12
3.72121e-12
-2.83574e-10
-4.68793e-11
-1.59442e-10
-4.2946e-11
-5.58888e-12
-2.88172e-11
-6.08003e-11
-6.67762e-11
-7.12818e-11
-6.31004e-11
-3.20125e-11
-6.36318e-12
8.23579e-13
-2.59892e-12
-4.07582e-12
2.09599e-14
1.36147e-12
8.67949e-13
1.21203e-12
-2.81256e-10
-7.32829e-11
-1.82228e-10
-4.33853e-11
-3.91943e-12
-1.77765e-11
-5.57315e-11
-7.0734e-11
-7.50573e-11
-5.1146e-11
-1.92457e-11
-1.22586e-12
6.32468e-13
1.20073e-13
-2.28291e-14
4.10865e-14
-1.35865e-13
-1.39563e-13
-3.27312e-14
-2.30023e-10
-7.18101e-11
-1.69767e-10
-2.22417e-11
1.01302e-12
-1.17277e-11
-4.38444e-11
-6.53825e-11
-6.82773e-11
-3.56028e-11
-6.91752e-12
7.31067e-13
2.75733e-14
2.83922e-13
2.34812e-13
-2.27989e-14
-8.07433e-14
-2.69884e-14
-4.99314e-14
-4.83382e-10
-1.41189e-10
-1.43134e-10
1.31294e-11
3.07016e-12
-8.26318e-12
-2.82573e-11
-4.84242e-11
-4.83963e-11
-1.85271e-11
-4.29788e-14
2.46598e-13
-9.38308e-14
4.90709e-14
-1.01827e-14
8.88464e-15
2.21402e-14
1.16346e-14
8.82671e-15
1.06679e-09
-1.71551e-10
-9.70766e-11
1.15654e-11
-3.44073e-12
-8.26589e-12
-2.14021e-11
-3.91854e-11
-2.17206e-11
-3.60409e-12
6.33935e-13
-8.16229e-14
9.03547e-15
2.72832e-15
-1.2244e-15
-1.12986e-15
-2.00682e-15
-1.56817e-15
-1.2273e-15
-5.48273e-18
6.54005e-17
-1.67373e-16
7.56017e-16
-1.94449e-14
1.17681e-14
-4.33817e-14
1.11397e-13
-9.36371e-14
-2.19521e-13
-3.09455e-13
4.31694e-13
4.31894e-13
4.15559e-13
5.41426e-12
1.33491e-12
1.23515e-12
5.38727e-12
7.56186e-13
1.22595e-12
3.07634e-14
4.68954e-13
5.52896e-13
5.97118e-13
5.83258e-13
7.95492e-13
1.22257e-11
9.02327e-13
9.09692e-13
9.12784e-13
9.32657e-13
9.55612e-13
9.58584e-13
9.7948e-13
1.0084e-12
1.0172e-12
1.02328e-12
1.03483e-12
9.42479e-13
1.18523e-12
2.37989e-11
2.87971e-12
2.68557e-12
2.76062e-12
8.54825e-12
8.3245e-13
9.33864e-13
7.91625e-13
1.15335e-11
3.74739e-12
1.70902e-12
8.46502e-13
9.27637e-13
7.09788e-13
3.64721e-13
-1.07761e-12
-6.93577e-13
-8.10018e-13
-1.01648e-12
-1.52716e-11
-9.76855e-13
-6.37723e-13
-6.26762e-13
-5.51275e-13
-5.0316e-13
-4.35344e-13
-3.67365e-13
-3.14464e-13
-2.74518e-13
-2.34465e-13
-1.98971e-13
-1.6677e-13
-1.35779e-13
4.68615e-13
-4.17621e-14
1.83737e-14
4.4962e-14
7.88006e-14
1.25031e-13
2.47214e-13
1.14512e-12
1.32256e-12
7.87183e-12
1.87618e-12
1.90096e-12
9.35551e-12
1.62025e-12
1.74161e-12
7.1127e-12
1.06331e-12
1.19346e-12
3.04217e-12
-2.04865e-13
-2.45713e-13
-2.23987e-13
-1.22948e-12
-2.22343e-13
-2.44197e-13
-7.46755e-13
2.22131e-14
4.41266e-09
-5.34403e-10
-3.40445e-10
3.3717e-11
-6.34605e-12
-3.6992e-12
-8.33241e-12
-1.21748e-11
-4.09157e-12
-2.85705e-14
3.94135e-13
-5.09283e-13
-7.1427e-13
5.97288e-15
3.31266e-14
-1.04414e-14
1.49375e-15
1.07612e-15
-3.43899e-14
-3.29943e-10
-2.49454e-10
-4.53771e-10
4.07169e-11
6.43332e-13
-7.25462e-12
-1.8396e-11
-2.69003e-11
-1.36966e-11
-2.78081e-12
-1.98517e-12
-2.89819e-12
-3.08101e-12
-7.78905e-13
8.70905e-14
2.36254e-14
-1.05162e-14
-2.3095e-15
7.05141e-14
5.46788e-10
-2.77416e-10
-4.88779e-10
-4.61028e-11
-9.37207e-12
-9.02415e-12
-3.32739e-11
-4.83229e-11
-2.73116e-11
-8.36438e-12
-5.63201e-12
-5.2023e-12
-4.43362e-12
-2.35132e-12
-4.34335e-13
1.18382e-13
3.14297e-14
-1.15139e-14
-1.26394e-13
2.17783e-10
-3.27652e-10
-4.82923e-10
-1.01422e-10
-3.40228e-11
-1.47601e-11
-4.88632e-11
-6.43573e-11
-3.96457e-11
-1.33943e-11
-8.50464e-12
-5.55438e-12
-3.05656e-12
-3.29128e-12
-1.38379e-12
-1.25112e-13
9.60386e-14
8.18125e-14
-1.18666e-12
2.2386e-10
-2.38058e-10
-3.88627e-10
-1.02955e-10
-3.69588e-11
-2.70709e-11
-6.16632e-11
-6.45156e-11
-4.72138e-11
-1.95342e-11
-8.2297e-12
-3.54941e-12
-8.31529e-13
-3.07204e-12
-1.9781e-12
-6.37875e-13
-1.57941e-13
4.40271e-13
-3.5875e-12