/*--------------------------------*- C++ -*----------------------------------*\
| =========                 |                                                 |
| \\      /  F ield         | OpenFOAM: The Open Source CFD Toolbox           |
|  \\    /   O peration     | Version:  4.1                                   |
|   \\  /    A nd           | Web:      www.OpenFOAM.org                      |
|    \\/     M anipulation  |                                                 |
\*---------------------------------------------------------------------------*/
FoamFile
{
    version     2.0;
    format      ascii;
    class       volVectorField;
    location    "7";
    object      U;
}
// * * * * * * * * * * * * * * * * * * * * * * * * * * * * * * * * * * * * * //

dimensions      [0 1 -1 0 0 0 0];

internalField   nonuniform List<vector> 
1280
(
(3.96223e-21 1.72659 -0.0319141)
(-1.11154e-20 1.08738 -0.172742)
(1.20956e-19 0.861709 -0.211764)
(-5.46353e-19 1.06615 -0.222716)
(3.30484e-18 1.21323 -0.351726)
(-8.50449e-18 0.953593 -0.307634)
(3.13508e-17 1.10622 -0.322286)
(-1.08821e-16 1.08413 -0.303892)
(1.27088e-16 1.316 -0.528436)
(1.70997e-16 1.15893 -0.43785)
(2.23635e-16 1.25332 -0.391493)
(-1.55477e-16 1.55874 -0.700509)
(-3.12118e-16 1.36906 -0.579546)
(-3.20839e-16 1.51323 -0.524965)
(-1.03512e-15 1.82732 -0.925345)
(-9.64707e-16 1.69394 -0.778238)
(-8.92613e-16 1.88251 -0.666768)
(-9.15618e-16 2.17312 -1.58437)
(-5.46476e-16 2.50543 -0.758841)
(-8.85961e-16 1.93519 -2.48321)
(-1.26209e-16 2.41319 0.938139)
(-1.92392e-15 2.59178 4.21378)
(-2.26829e-15 2.3577 5.8314)
(-2.44972e-15 2.60854 6.91158)
(-2.39285e-15 2.50123 7.69216)
(-3.26356e-15 2.84228 8.68996)
(-2.57722e-15 1.6907 7.51201)
(-3.70185e-15 5.53805 12.7448)
(-3.73207e-15 5.81982 13.2647)
(-3.74476e-15 5.88135 13.7249)
(-3.82628e-15 5.96192 14.1032)
(-3.92046e-15 6.03288 14.4183)
(-3.93265e-15 6.08452 14.6826)
(-4.01838e-15 6.10961 14.907)
(-4.13701e-15 6.157 15.0997)
(-4.17313e-15 6.13772 15.2597)
(-4.19806e-15 6.21919 15.4232)
(-4.24545e-15 6.07951 15.6061)
(-3.86658e-15 6.43882 16.2938)
(-4.86248e-15 6.01614 14.6095)
(-4.14255e-15 10.0042 15.5558)
(-2.31302e-15 4.18973 11.1443)
(-2.15708e-15 2.43869 10.8341)
(-2.21442e-15 1.77209 11.3109)
(-1.33661e-15 -1.05387 5.88367)
(-6.68634e-16 -1.11033 -5.22087)
(-7.50092e-16 -0.586622 -3.94911)
(-6.35843e-16 -0.0648204 -4.3238)
(-2.19909e-15 -0.20976 -4.98676)
(-3.61165e-15 -0.756656 -3.77104)
(-1.52388e-15 -0.0463152 -4.19403)
(-1.47346e-16 -0.592957 -4.55901)
(-7.4509e-16 -0.167037 -1.26587)
(-5.70111e-16 -0.118322 0.753775)
(-2.92948e-16 -0.740868 2.92202)
(1.87574e-16 -1.28411 8.2001)
(5.5709e-16 -3.22368 9.52587)
(6.50617e-16 -4.20474 9.32249)
(8.16449e-16 -5.33279 9.48252)
(2.43501e-15 -9.32792 13.2573)
(4.00761e-15 -7.61202 11.5161)
(2.6163e-15 -7.90213 11.9648)
(2.57133e-15 -7.88969 12.173)
(2.26164e-15 -8.00569 12.4469)
(2.06425e-15 -8.04386 12.7389)
(1.78603e-15 -8.10507 13.0656)
(1.50714e-15 -8.14697 13.4018)
(1.29011e-15 -8.18529 13.7322)
(1.12623e-15 -8.21339 14.0288)
(9.61908e-16 -8.228 14.2696)
(8.16291e-16 -8.20931 14.4239)
(6.84184e-16 -8.14913 14.4568)
(5.57041e-16 -8.10246 14.2857)
(-9.87858e-17 -3.82059 8.8335)
(1.71332e-16 -5.00112 11.1724)
(-7.53792e-17 -4.61372 10.6537)
(-1.84459e-16 -4.41693 10.0276)
(-3.23285e-16 -4.17284 8.204)
(-5.12948e-16 -4.55185 3.95444)
(-1.01421e-15 -4.13781 -2.20001)
(-8.27546e-16 -4.64975 -2.53027)
(-9.55778e-16 -3.80241 -2.34591)
(-1.33789e-15 -4.20054 -2.92585)
(-1.35587e-15 -3.11836 -1.30898)
(-1.37377e-15 -2.85662 -1.52419)
(-1.7473e-15 -2.98476 -1.76294)
(-1.17091e-15 -2.38209 -0.851658)
(-1.28484e-15 -2.17564 -0.977381)
(-1.31375e-15 -2.40182 -1.14768)
(-7.35576e-16 -1.90376 -0.56916)
(-8.62485e-16 -1.7682 -0.652644)
(-7.79871e-16 -1.99708 -0.761253)
(1.09723e-16 -1.60177 -0.375309)
(1.7757e-16 -1.65684 -0.419812)
(1.6187e-16 -1.43463 -0.405084)
(2.08961e-16 -1.81812 -0.473799)
(1.60681e-16 -1.55732 -0.280962)
(1.76475e-16 -1.2835 -0.285426)
(1.67436e-16 -1.61667 -0.253867)
(-1.60528e-17 -2.49725 -0.045065)
(-4.90296e-13 183.602 181.42)
(5.93781e-14 -45.9458 -45.0931)
(3.78272e-14 -36.9245 -9.79253)
(-3.74633e-15 -4.08779 25.675)
(7.05117e-16 -2.99557 3.20516)
(4.11023e-16 6.42847 7.85728)
(9.25823e-16 4.16489 -0.771162)
(1.35275e-15 1.42578 -2.9492)
(4.54619e-16 -0.675509 -1.56389)
(3.1745e-18 1.68425 2.3894)
(-4.37928e-17 4.5024 3.30008)
(5.6587e-17 3.01719 -0.0709586)
(7.93633e-17 0.175207 -2.24014)
(-6.63654e-19 -1.78276 -1.02759)
(-3.68073e-18 -1.72993 0.0714152)
(1.16016e-18 -1.13598 0.332932)
(-1.65972e-19 -1.07215 -0.0130067)
(-1.19568e-19 -1.26605 -0.177819)
(3.8211e-18 -1.52262 0.136491)
(3.66603e-14 -70.5255 -45.0215)
(2.77171e-14 38.3095 25.5186)
(5.0419e-14 -31.7048 -12.1016)
(-4.5241e-15 -2.99246 22.3007)
(-7.14813e-17 1.10077 2.72489)
(8.06069e-16 1.5731 3.69095)
(2.044e-15 2.8604 -0.455038)
(2.98893e-15 -0.20199 -1.69684)
(1.52184e-15 -1.70793 -2.15589)
(3.08979e-16 -0.645342 0.283481)
(2.20575e-16 0.606138 -0.249161)
(3.22021e-16 1.21626 -1.42813)
(3.42335e-16 -0.589171 -2.2244)
(8.6545e-17 -1.93337 -1.86565)
(-9.67672e-18 -1.76306 -0.424413)
(-2.62504e-18 -0.89487 0.465307)
(1.16847e-18 -0.755077 -0.0080087)
(2.56611e-19 -1.13696 -0.414589)
(-7.8349e-18 -1.39624 0.0196333)
(-6.07543e-14 60.5263 16.9236)
(3.0824e-14 -4.36902 -3.71345)
(5.43087e-14 -25.2909 -10.0389)
(5.12254e-15 -7.22045 8.78605)
(1.04134e-15 4.5681 3.69324)
(1.00268e-15 5.20828 1.99177)
(3.6971e-15 4.81448 -0.6018)
(5.36922e-15 1.00094 -1.43011)
(3.03462e-15 -1.67199 -1.58106)
(9.29376e-16 -0.796428 -0.266177)
(6.25779e-16 2.44563 -0.0747033)
(5.78034e-16 2.67945 -1.41926)
(4.92625e-16 0.189104 -2.41823)
(2.61258e-16 -2.09099 -2.09852)
(4.82594e-17 -1.94251 -0.863566)
(-1.31535e-17 -0.801344 0.0960154)
(-3.49219e-18 -0.279928 -0.164037)
(1.27933e-18 -0.779522 -0.492685)
(1.40438e-17 -0.924989 -0.429912)
(-2.41981e-14 3.49523 4.58045)
(3.64058e-14 9.72376 10.4291)
(5.36581e-14 -25.9553 -4.68472)
(1.12691e-14 -10.4393 2.50964)
(3.78031e-15 4.85531 -1.41172)
(1.64001e-15 4.98013 -0.921044)
(5.42924e-15 4.62484 -0.425508)
(7.15081e-15 0.436928 -0.0627719)
(4.40508e-15 -1.91287 -0.114561)
(1.48826e-15 -0.720466 0.297607)
(9.4496e-16 2.40262 0.399241)
(6.17153e-16 2.65877 -0.48362)
(3.39617e-16 -0.190193 -1.25822)
(3.65697e-16 -2.36299 -1.73676)
(1.53754e-16 -2.35547 -0.845626)
(1.39014e-17 -1.04062 -0.143665)
(-1.0671e-17 -0.34254 -0.474495)
(-9.09028e-18 -0.957518 -0.592891)
(1.31852e-16 -1.01347 -1.05666)
(-2.48733e-14 25.6594 15.4575)
(2.64509e-14 3.40888 6.46612)
(4.31807e-14 -23.1017 4.91786)
(1.14394e-14 -9.93248 -1.76859)
(4.10654e-15 4.51041 -5.49952)
(3.00787e-15 4.86224 -3.09167)
(6.85147e-15 4.16636 0.333726)
(7.1684e-15 0.117922 1.38256)
(5.24598e-15 -1.98983 1.67261)
(2.17046e-15 -0.664326 1.40995)
(9.14411e-16 2.49116 1.7861)
(3.94379e-16 2.96242 1.83883)
(9.23921e-17 0.0798883 1.08812)
(3.41338e-16 -2.44503 -0.832588)
(2.19789e-16 -2.58426 -0.295748)
(7.0875e-17 -1.07303 -0.118844)
(1.7549e-17 -0.213171 -0.985331)
(-4.8919e-17 -0.540623 -0.85595)
(3.98611e-16 -0.660059 -1.92142)
(-1.55291e-14 10.835 18.1544)
(1.54507e-14 4.26572 12.2583)
(2.35242e-14 -18.4764 13.3607)
(8.03489e-15 -6.72272 -5.66305)
(4.38377e-15 4.78588 -4.8709)
(5.45381e-15 3.33932 -2.43924)
(7.49248e-15 2.92566 2.06577)
(6.58424e-15 -0.318628 2.91498)
(5.47492e-15 -1.89704 3.33591)
(2.72995e-15 -0.593189 3.00079)
(7.40579e-16 2.28358 4.19284)
(2.15596e-16 2.93263 4.9517)
(8.3324e-17 0.931389 3.86501)
(1.36848e-16 -1.9603 0.7291)
(2.22771e-16 -2.43079 0.629833)
(1.18726e-16 -0.760033 0.412587)
(9.08706e-17 -0.376178 -1.47135)
(-1.23057e-16 -1.13391 -1.04795)
(5.09239e-16 -0.685302 -3.22528)
(-1.26409e-14 11.7491 23.0979)
(6.00789e-15 1.74101 10.2492)
(5.91908e-15 -13.0667 17.3251)
(5.29307e-15 -2.95027 -9.67561)
(5.04825e-15 3.69382 0.867686)
(7.74044e-15 1.97406 0.462023)
(6.77872e-15 2.12109 3.9681)
(5.83476e-15 -0.608271 4.38923)
(5.19001e-15 -1.95025 4.97284)
(2.77782e-15 -0.82809 5.21661)
(4.0516e-16 1.81294 7.25838)
(-7.03542e-17 2.98652 8.40038)
(-3.51193e-17 1.8712 7.41781)
(1.32079e-17 -1.48065 3.26519)
(8.85492e-17 -2.34744 1.38948)
(1.5055e-16 0.0648385 0.838339)
(4.75621e-16 1.00016 0.477143)
(2.54368e-16 1.09448 -2.83838)
(-6.09064e-16 0.630421 0.340047)
(-8.44984e-15 5.75486 26.3204)
(2.48131e-15 1.4538 7.84015)
(-1.7749e-15 -7.60545 16.6994)
(5.46915e-15 -0.934381 -8.2542)
(5.93907e-15 1.56791 6.13788)
(6.82771e-15 1.86007 2.95574)
(5.49047e-15 1.52194 5.77988)
(4.83386e-15 -0.85758 6.00385)
(4.45602e-15 -2.21391 6.63233)
(2.39018e-15 -1.43562 7.52098)
(-3.32876e-16 1.09106 10.0297)
(-1.13051e-15 2.88346 11.2743)
(-7.34262e-16 2.98643 11.0302)
(8.54937e-17 0.616481 7.91208)
(1.43899e-16 -1.30613 3.42199)
(5.26756e-16 -0.226781 3.73497)
(9.47886e-16 0.0596669 6.26384)
(1.07997e-15 -1.84515 7.26813)
(1.45999e-15 -5.83645 10.1033)
(-6.84193e-15 4.03458 30.3142)
(3.63532e-15 0.37604 5.76517)
(-7.5013e-16 -3.53293 15.6365)
(5.96005e-15 -0.489329 0.717041)
(4.77292e-15 0.85886 7.13627)
(4.66652e-15 1.54398 5.30934)
(4.18295e-15 1.08175 7.78205)
(3.43651e-15 -1.04988 8.18139)
(2.67776e-15 -2.55034 8.75879)
(1.09313e-15 -2.13264 9.77961)
(-2.09394e-15 0.395201 11.679)
(-3.56924e-15 2.56998 12.2713)
(-2.41622e-15 3.01537 12.8482)
(-2.14031e-16 1.19584 13.1311)
(6.68648e-16 -0.706194 11.8712)
(7.4919e-16 -0.762505 11.9709)
(9.7469e-16 -0.234903 13.2808)
(1.06841e-15 -0.959764 12.8117)
(9.37472e-16 -2.89918 11.533)
(-7.78411e-15 0.875451 33.7089)
(5.33491e-15 0.120973 6.67293)
(5.20526e-16 -1.34527 16.3993)
(2.79252e-15 0.191177 4.61971)
(1.97142e-15 0.795098 7.97909)
(2.945e-15 1.08635 6.95987)
(3.58651e-15 0.467162 9.84304)
(4.10264e-15 -1.35979 10.9171)
(2.01691e-15 -2.85301 11.5304)
(-7.83815e-16 -2.5513 11.7427)
(-4.94974e-15 0.142733 11.5231)
(-5.99116e-15 2.47815 10.7556)
(-4.41634e-15 2.73182 11.7749)
(-2.02133e-15 1.06144 13.048)
(-8.90894e-17 -0.730662 12.9255)
(-2.77976e-16 -0.842016 12.3704)
(-5.03889e-16 -0.378286 11.2227)
(-3.01219e-16 -0.852536 8.92276)
(9.10979e-17 -2.43611 5.28614)
(-1.78917e-14 -1.11519 33.5375)
(2.05845e-15 -0.027804 6.48811)
(-3.63784e-15 1.02001 16.228)
(-3.11116e-16 0.936827 4.57179)
(1.16504e-15 0.820143 8.24148)
(3.93955e-15 0.373909 7.64457)
(3.72069e-15 -0.376891 11.0399)
(1.48236e-15 -1.82982 12.8525)
(-1.22771e-16 -2.90212 13.7294)
(-3.45772e-15 -2.09663 12.4031)
(-5.36615e-15 0.753782 8.96516)
(-4.52628e-15 2.4387 7.12255)
(-4.68418e-15 2.01079 9.64439)
(-4.95258e-15 0.723167 12.6319)
(-4.13728e-15 -0.467031 12.9137)
(-3.76798e-15 -0.218726 12.5369)
(-3.76058e-15 0.864608 11.8368)
(-3.49905e-15 1.94283 9.67858)
(-2.899e-15 2.76721 5.42502)
(-2.2632e-14 -4.17008 30.0861)
(2.25565e-15 -0.269857 5.17973)
(-5.40231e-15 3.20724 15.1973)
(-2.42419e-15 1.51627 0.91946)
(-3.03888e-15 0.461346 7.8617)
(-1.07601e-15 -0.469068 6.91315)
(-4.38703e-16 -1.4352 10.4954)
(-1.44605e-15 -2.4967 12.5719)
(-2.84149e-15 -2.65163 13.1067)
(-4.45653e-15 -0.684088 9.62597)
(-4.0837e-15 2.10985 4.84125)
(-2.82811e-15 2.23133 3.1357)
(-2.86464e-15 0.497735 5.83807)
(-4.05688e-15 -0.292502 10.5992)
(-3.83296e-15 -0.629437 11.9645)
(-3.31375e-15 -0.0753562 11.8369)
(-3.04019e-15 0.999832 11.3158)
(-3.12961e-15 2.21915 11.2598)
(-2.98886e-15 3.2526 10.8266)
(-2.57805e-14 -5.79899 26.1236)
(1.49256e-15 -1.33659 6.83767)
(-5.89998e-15 6.80431 16.0555)
(-1.76931e-15 1.91709 -6.47046)
(-3.89961e-15 -0.626406 6.85076)
(-3.99043e-15 -1.21834 5.17568)
(-3.21269e-15 -2.42387 8.82421)
(-3.60082e-15 -2.92089 10.4927)
(-4.78013e-15 -1.74473 10.2214)
(-5.83921e-15 1.25033 6.07755)
(-5.37236e-15 3.23776 3.58079)
(-3.15786e-15 2.42116 2.17055)
(-2.04927e-15 -0.94015 2.27543)
(-3.14085e-15 -1.4106 5.59728)
(-2.61909e-15 -0.90336 5.87876)
(-1.50797e-15 -0.135767 3.49727)
(-1.21892e-15 0.500876 2.41729)
(-1.76623e-15 1.82625 4.39588)
(-2.98927e-15 6.58824 9.71673)
(-2.90252e-14 -11.2711 22.9536)
(5.56221e-16 -1.71089 9.06739)
(-7.54754e-15 11.7886 16.9873)
(-2.24677e-15 3.31552 -9.11009)
(-3.21309e-15 -2.7648 3.31728)
(-5.55405e-15 -1.82459 3.35376)
(-5.08404e-15 -3.35555 6.73051)
(-5.14715e-15 -3.15045 7.80986)
(-6.14648e-15 -0.906572 6.93212)
(-7.00657e-15 2.07876 3.46384)
(-5.55305e-15 3.72237 2.2539)
(-2.37456e-15 2.92235 1.13162)
(-7.43294e-16 -1.22792 0.170091)
(-2.25852e-15 -1.97038 1.35593)
(-2.28837e-15 0.0126312 1.83808)
(-1.02385e-15 1.30205 -0.746945)
(-4.07421e-16 1.03583 -1.28866)
(1.7657e-17 -0.364642 -2.02994)
(2.34756e-16 -1.87349 -1.79395)
(-2.98434e-14 -10.4374 18.1946)
(-1.91919e-15 -4.13318 11.3533)
(-1.20911e-14 16.9514 13.7587)
(-3.56516e-15 6.54003 -5.56928)
(-1.40839e-15 -4.50451 -2.61106)
(-4.90623e-15 -2.84525 1.32823)
(-6.34241e-15 -4.01558 4.61089)
(-6.42531e-15 -3.10822 5.30995)
(-7.20271e-15 0.036655 4.0749)
(-7.44537e-15 2.86838 1.43533)
(-4.81733e-15 4.16504 0.88093)
(-1.51525e-15 3.16563 0.351689)
(-1.16995e-16 -0.798003 0.282959)
(-1.07101e-15 -2.00964 -0.848822)
(-1.41283e-15 -0.212372 -0.994592)
(-4.53717e-16 1.02497 -1.42715)
(1.04911e-16 0.965389 -1.31438)
(1.99059e-16 1.06083 -0.837991)
(4.13467e-16 1.53652 -1.62329)
(-3.15082e-14 -24.2121 15.6212)
(-5.20881e-15 -3.38218 6.07562)
(-1.77158e-14 21.3947 5.91007)
(-4.77178e-15 9.50231 -1.96493)
(-6.20987e-16 -5.1758 -4.11439)
(-3.20191e-15 -4.80324 0.326416)
(-6.75559e-15 -4.92428 2.76484)
(-7.41958e-15 -3.15679 3.12745)
(-7.9202e-15 0.818494 1.61678)
(-7.01116e-15 3.37793 -0.102166)
(-3.55695e-15 4.30665 -0.220965)
(-7.0702e-16 2.98974 0.221781)
(9.15088e-17 -0.540499 1.12457)
(-2.88768e-16 -1.64597 -0.722466)
(-4.52869e-16 -0.128319 -1.52144)
(2.32888e-18 1.27818 -1.13159)
(1.51275e-16 0.986972 -0.649043)
(9.64388e-17 0.505096 -0.524507)
(1.3467e-16 -0.130506 -0.844545)
(-3.12507e-14 -3.77116 5.32423)
(-8.14254e-15 -9.48964 9.25306)
(-2.02476e-14 24.2069 -3.85963)
(-4.82059e-15 9.95975 1.80188)
(-4.35492e-16 -5.5953 -1.02081)
(-1.97516e-15 -5.02275 1.29498)
(-6.19239e-15 -4.9316 1.51041)
(-7.85933e-15 -2.61649 1.41089)
(-8.33969e-15 1.33991 -0.0653592)
(-5.68289e-15 3.64175 -1.20335)
(-2.13841e-15 4.11772 -0.871321)
(-1.36207e-16 2.48394 0.622762)
(7.02742e-17 -0.129618 1.59116)
(1.33414e-17 -1.09244 0.132668)
(-2.53657e-18 0.200589 -1.17649)
(4.56517e-18 0.856675 -0.534337)
(-1.50962e-17 0.748881 -0.0525534)
(-1.5507e-17 0.786706 -0.133382)
(-3.6368e-18 0.820839 -0.436014)
(-2.55582e-14 -56.6107 16.8184)
(-7.9789e-15 3.68543 -4.02374)
(-1.8863e-14 23.6617 -9.77207)
(-2.4713e-15 7.09604 7.60463)
(1.12558e-16 -6.32824 3.58519)
(-1.30308e-15 -6.1398 2.86119)
(-4.8716e-15 -5.58365 0.733432)
(-7.26472e-15 -3.01581 -0.209127)
(-7.58636e-15 0.901698 -1.57443)
(-3.95587e-15 3.53277 -2.20129)
(-7.68613e-16 3.39296 -0.735895)
(8.12296e-17 1.69417 1.31238)
(3.0637e-18 -0.0679074 1.59865)
(3.15469e-17 -0.62886 0.366097)
(2.60902e-17 0.177068 -0.71368)
(-2.53321e-18 0.643618 -0.258047)
(-8.97148e-18 0.728263 -0.0753839)
(-2.99871e-18 0.665696 -0.24476)
(-5.54793e-18 0.493517 -0.148104)
(-5.37091e-14 65.5459 -40.9829)
(-1.56877e-14 -36.1562 22.7446)
(-1.59038e-14 29.6279 -11.8678)
(1.45882e-15 3.05345 20.9367)
(3.41129e-16 -1.98857 3.3643)
(-9.18131e-16 -1.70743 3.36227)
(-3.1397e-15 -2.62821 0.225285)
(-5.38046e-15 -0.476103 -1.05263)
(-5.37737e-15 2.5406 -3.16471)
(-2.05857e-15 3.87651 -2.57509)
(-4.77542e-18 3.11821 0.102777)
(2.73998e-17 1.6275 1.7114)
(-1.04256e-17 0.411565 1.5543)
(5.45233e-18 -0.222501 0.45694)
(-1.13141e-18 0.450872 -0.259065)
(9.87182e-19 0.77267 -0.255418)
(2.46002e-18 0.935348 -0.110884)
(1.29274e-18 0.902862 -0.123059)
(9.80746e-19 0.980046 0.129591)
(1.18533e-13 -171.56 172.21)
(-1.90612e-14 43.4929 -42.6072)
(-1.07863e-14 34.1584 -9.0377)
(1.28505e-15 1.37707 26.3664)
(-3.82304e-16 -1.05361 5.77629)
(-9.18432e-16 -8.79316 8.07108)
(-2.37801e-15 -6.8802 0.334756)
(-4.35394e-15 -3.90209 -2.50964)
(-2.4134e-15 0.814276 -3.40213)
(-4.00454e-16 3.49392 -1.30692)
(7.04372e-17 3.00778 0.5006)
(-9.06921e-18 2.05392 0.877627)
(1.00394e-18 1.07435 0.842958)
(3.03147e-19 0.427236 0.535216)
(-1.36044e-19 0.68483 -0.104164)
(-1.2554e-19 0.875006 -0.145732)
(-2.2298e-19 1.01679 -0.0508785)
(-1.74241e-19 0.961608 -0.022962)
(-1.36367e-19 1.03881 0.145829)
(1.32514e-16 5.75573 10.3469)
(-5.81853e-15 10.2118 17.341)
(-4.96414e-15 10.108 16.9955)
(-4.67529e-15 9.8642 16.3506)
(-4.39796e-15 9.86738 16.1986)
(-6.64058e-15 9.92058 16.1232)
(-5.53018e-15 9.80211 15.7685)
(-4.74285e-15 9.82179 15.8178)
(-4.58457e-15 9.84055 15.8524)
(-4.37305e-15 9.83626 15.8606)
(-4.28259e-15 9.8166 15.8718)
(-4.39135e-15 9.79734 15.8876)
(-4.18725e-15 9.77635 15.905)
(-4.28878e-15 9.74813 15.9279)
(-4.49175e-15 9.72131 15.9397)
(-4.34315e-15 9.66897 15.9429)
(-4.31597e-15 9.70507 16.0547)
(-4.14945e-15 10.11 16.8697)
(-3.82567e-15 10.0738 16.6922)
(-8.04229e-15 5.39872 9.13066)
(5.38696e-17 5.39105 9.11627)
(-5.03453e-15 9.35315 16.0257)
(-3.62534e-15 8.96301 15.4481)
(-4.03258e-15 8.79394 15.1186)
(-3.59252e-15 8.78643 15.1777)
(-6.11547e-15 8.83016 15.2034)
(-4.21559e-15 8.8718 15.3099)
(-3.96891e-15 8.91253 15.3089)
(-3.92905e-15 8.92397 15.3314)
(-3.76873e-15 8.9553 15.353)
(-3.68422e-15 8.97623 15.3801)
(-3.92338e-15 8.99846 15.4054)
(-3.59156e-15 9.02028 15.4292)
(-3.92802e-15 9.03379 15.4566)
(-3.9446e-15 9.05309 15.4695)
(-3.76393e-15 9.04511 15.4785)
(-3.68367e-15 9.17069 15.6645)
(-3.57919e-15 9.64202 16.4983)
(-3.75848e-15 9.28829 15.8669)
(-7.69174e-15 4.27597 7.34118)
(1.69839e-18 5.93425 10.3453)
(-1.99867e-15 9.70036 16.6077)
(-1.42e-15 9.24636 15.9599)
(-1.45162e-15 9.10189 15.6177)
(-9.09956e-16 9.07348 15.6276)
(-3.76038e-15 9.09543 15.618)
(-1.71661e-15 9.07125 15.6091)
(-1.88572e-15 9.07971 15.6101)
(-1.90992e-15 9.07448 15.6184)
(-1.99216e-15 9.0795 15.6214)
(-1.84876e-15 9.07805 15.6286)
(-1.53985e-15 9.08025 15.6362)
(-1.73885e-15 9.08379 15.644)
(-1.67373e-15 9.08205 15.6568)
(-2.00891e-15 9.08789 15.6562)
(-1.83425e-15 9.06838 15.657)
(-1.50648e-15 9.19054 15.8352)
(-1.51636e-15 9.63842 16.6733)
(-1.9684e-15 9.24469 15.9317)
(-3.43868e-15 4.19805 7.36398)
(-2.13668e-18 5.94983 10.3011)
(4.47938e-16 9.53734 16.4005)
(3.21515e-16 9.05875 15.6807)
(3.31515e-16 8.93171 15.4022)
(2.61911e-16 8.91234 15.4337)
(-2.05807e-15 8.93297 15.437)
(-1.53878e-15 8.92268 15.4583)
(-1.73062e-15 8.93434 15.4625)
(-1.90879e-15 8.92867 15.4764)
(-1.77705e-15 8.93539 15.4849)
(-1.67955e-15 8.93467 15.4975)
(-1.78967e-15 8.938 15.5089)
(-1.87398e-15 8.94132 15.5204)
(-1.46597e-15 8.94072 15.5354)
(-1.72386e-15 8.94589 15.5379)
(-1.76524e-15 8.92791 15.5401)
(-1.67176e-15 9.04321 15.7103)
(-1.55859e-15 9.47857 16.5384)
(-1.91439e-15 9.1108 15.8669)
(-3.66735e-15 4.20342 7.40984)
(7.83725e-19 6.10879 10.6148)
(-1.00627e-16 9.55276 16.4314)
(-7.98808e-17 9.06189 15.6984)
(-7.96956e-17 8.93861 15.4242)
(-7.17027e-17 8.91589 15.449)
(4.84646e-16 8.93066 15.4494)
(3.94029e-16 8.91501 15.4614)
(4.37669e-16 8.92029 15.4645)
(4.4675e-16 8.91146 15.4752)
(4.45997e-16 8.91268 15.4812)
(4.24302e-16 8.90746 15.4909)
(3.75121e-16 8.90611 15.4994)
(3.99187e-16 8.9042 15.5085)
(4.00233e-16 8.89982 15.5204)
(4.59922e-16 8.90052 15.5233)
(4.22345e-16 8.87959 15.5225)
(3.64746e-16 8.96079 15.6396)
(3.66962e-16 9.34821 16.4069)
(4.53819e-16 9.18286 16.0905)
(7.49982e-16 4.59535 8.15595)
(-2.42022e-19 6.19131 10.7323)
(2.30423e-17 9.49916 16.3512)
(1.98608e-17 9.01046 15.6029)
(1.86895e-17 8.8875 15.3417)
(1.8176e-17 8.86895 15.3656)
(-1.20625e-16 8.88193 15.368)
(-9.85997e-17 8.8687 15.3807)
(-1.04573e-16 8.87328 15.3841)
(-1.03111e-16 8.86481 15.3944)
(-1.02623e-16 8.86557 15.4002)
(-9.48895e-17 8.85996 15.4095)
(-8.80592e-17 8.85817 15.4172)
(-9.26015e-17 8.85499 15.4258)
(-9.9345e-17 8.85033 15.4362)
(-1.07892e-16 8.85019 15.4412)
(-1.00665e-16 8.83115 15.4413)
(-9.05966e-17 8.87318 15.4955)
(-9.12781e-17 9.19138 16.1388)
(-1.09732e-16 9.28644 16.2947)
(-1.64271e-16 5.1039 9.04969)
(7.03479e-20 6.31788 10.9426)
(-5.32319e-18 9.48009 16.3136)
(-4.83744e-18 8.98842 15.5548)
(-4.27615e-18 8.86921 15.3043)
(-4.51566e-18 8.85243 15.3253)
(2.91893e-17 8.86378 15.3269)
(2.45408e-17 8.85132 15.3372)
(2.4462e-17 8.85491 15.3393)
(2.37876e-17 8.84678 15.3477)
(2.37742e-17 8.84703 15.3519)
(2.21557e-17 8.84131 15.3593)
(2.14506e-17 8.8394 15.365)
(2.24233e-17 8.83562 15.3717)
(2.33996e-17 8.83132 15.3795)
(2.48024e-17 8.83055 15.3843)
(2.33662e-17 8.81594 15.3866)
(2.21201e-17 8.83237 15.4003)
(2.18442e-17 9.06666 15.8782)
(2.6209e-17 9.36856 16.4045)
(3.53947e-17 5.64696 9.98395)
(-1.9839e-20 6.45563 11.1635)
(1.22799e-18 9.45158 16.261)
(1.15105e-18 8.95696 15.4884)
(9.75296e-19 8.84592 15.2576)
(1.10126e-18 8.8321 15.2771)
(-6.95186e-18 8.84255 15.2788)
(-5.90456e-18 8.83185 15.2881)
(-5.52087e-18 8.83539 15.2899)
(-5.58677e-18 8.82843 15.2973)
(-5.53066e-18 8.82908 15.3008)
(-5.32722e-18 8.82418 15.3074)
(-5.25088e-18 8.82307 15.3121)
(-5.44801e-18 8.81975 15.318)
(-5.39015e-18 8.81676 15.3242)
(-5.72492e-18 8.816 15.3288)
(-5.52527e-18 8.80622 15.3331)
(-5.30169e-18 8.81136 15.3319)
(-5.27659e-18 8.97405 15.6641)
(-6.22553e-18 9.38968 16.3888)
(-7.65117e-18 6.11872 10.7724)
(5.52836e-21 6.61807 11.4329)
(-2.84323e-19 9.4258 16.2132)
(-2.69132e-19 8.9277 15.4296)
(-2.26382e-19 8.82934 15.224)
(-2.61508e-19 8.81766 15.2425)
(1.64268e-18 8.82719 15.2439)
(1.39513e-18 8.81783 15.2521)
(1.23881e-18 8.82121 15.2537)
(1.32685e-18 8.81526 15.2602)
(1.29951e-18 8.81619 15.2633)
(1.26308e-18 8.81204 15.2691)
(1.28782e-18 8.81164 15.2731)
(1.30173e-18 8.80879 15.2785)
(1.24088e-18 8.80703 15.2838)
(1.33087e-18 8.80632 15.2883)
(1.32485e-18 8.79989 15.2931)
(1.26528e-18 8.80122 15.2886)
(1.29009e-18 8.91589 15.5233)
(1.48076e-18 9.37269 16.3133)
(1.67282e-18 6.49071 11.3852)
(-1.52839e-21 6.79172 11.7231)
(6.67286e-20 9.39287 16.1566)
(6.2633e-20 8.89566 15.3691)
(5.36127e-20 8.81229 15.1925)
(6.06172e-20 8.80242 15.2103)
(-3.86996e-19 8.81109 15.2115)
(-3.28965e-19 8.80294 15.2191)
(-2.84144e-19 8.80615 15.2207)
(-3.16312e-19 8.80114 15.2268)
(-3.0679e-19 8.80224 15.2298)
(-2.93111e-19 8.79878 15.2354)
(-3.14177e-19 8.79894 15.2391)
(-3.09079e-19 8.79646 15.2445)
(-2.9007e-19 8.79576 15.2492)
(-3.11078e-19 8.79499 15.2539)
(-3.17674e-19 8.79094 15.259)
(-3.01524e-19 8.79089 15.2547)
(-3.14973e-19 8.87584 15.4297)
(-3.53576e-19 9.33707 16.2222)
(-3.69583e-19 6.7737 11.8508)
(4.14889e-22 6.9725 12.0284)
(-1.59072e-20 9.35443 16.0928)
(-1.47186e-20 8.86439 15.3128)
(-1.27987e-20 8.79655 15.1655)
(-1.39394e-20 8.78794 15.1824)
(9.05168e-20 8.7957 15.1834)
(7.76045e-20 8.78853 15.1904)
(6.73513e-20 8.79142 15.1923)
(7.54481e-20 8.78716 15.198)
(7.2565e-20 8.78823 15.201)
(6.79168e-20 8.78528 15.2063)
(7.5378e-20 8.78574 15.2099)
(7.4018e-20 8.78343 15.2153)
(6.90437e-20 8.78353 15.2196)
(7.30525e-20 8.78242 15.2247)
(7.56351e-20 8.7802 15.2296)
(7.15969e-20 8.77924 15.2265)
(7.62282e-20 8.84454 15.3618)
(8.448e-20 9.29447 16.1331)
(8.22089e-20 7.00008 12.2283)
(-1.08699e-22 7.15505 12.338)
(3.82581e-21 9.30939 16.0191)
(3.51686e-21 8.83419 15.2598)
(3.04443e-21 8.7811 15.1404)
(3.23574e-21 8.7734 15.1562)
(-2.09732e-20 8.78027 15.1571)
(-1.82489e-20 8.77395 15.1637)
(-1.63634e-20 8.77647 15.1657)
(-1.80323e-20 8.77285 15.171)
(-1.72489e-20 8.77375 15.1741)
(-1.60386e-20 8.77123 15.1792)
(-1.77895e-20 8.77183 15.1828)
(-1.79111e-20 8.76959 15.1882)
(-1.66695e-20 8.77031 15.1921)
(-1.7253e-20 8.76869 15.1977)
(-1.78907e-20 8.76805 15.2022)
(-1.69548e-20 8.76613 15.2008)
(-1.82906e-20 8.8172 15.3062)
(-2.0132e-20 9.24687 16.0442)
(-1.8339e-20 7.19695 12.5613)
(2.70493e-23 7.33761 12.6484)
(-9.2033e-22 9.25857 15.9361)
(-8.50584e-22 8.80613 15.2111)
(-7.19581e-22 8.76637 15.1173)
(-7.63378e-22 8.75932 15.1316)
(4.84488e-21 8.76532 15.1326)
(4.27496e-21 8.75976 15.1386)
(4.00748e-21 8.76185 15.1408)
(4.3215e-21 8.75882 15.1458)
(4.12841e-21 8.75945 15.149)
(3.87539e-21 8.75734 15.1538)
(4.17819e-21 8.75791 15.1573)
(4.34032e-21 8.75576 15.1627)
(4.05998e-21 8.75691 15.1664)
(4.10611e-21 8.75476 15.1723)
(4.22172e-21 8.75551 15.1763)
(4.02262e-21 8.75257 15.1767)
(4.36294e-21 8.79254 15.2574)
(4.78383e-21 9.19451 15.9515)
(4.10538e-21 7.38079 12.8751)
(-6.30631e-24 7.51921 12.9573)
(2.20319e-22 9.20203 15.8436)
(2.05902e-22 8.78033 15.1667)
(1.69826e-22 8.75224 15.0953)
(1.81972e-22 8.74565 15.1082)
(-1.12746e-21 8.75084 15.1091)
(-1.00193e-21 8.746 15.1147)
(-9.76673e-22 8.74764 15.1171)
(-1.03587e-21 8.74516 15.1217)
(-9.92413e-22 8.74549 15.125)
(-9.49535e-22 8.74379 15.1296)
(-9.88289e-22 8.74423 15.1331)
(-1.04271e-21 8.74224 15.1384)
(-9.90074e-22 8.74366 15.1418)
(-9.84744e-22 8.74106 15.1479)
(-9.97592e-22 8.74303 15.1514)
(-9.60113e-22 8.73908 15.1537)
(-1.03674e-21 8.77016 15.2133)
(-1.13496e-21 9.13702 15.8518)
(-9.25655e-22 7.55916 13.1804)
(1.35769e-24 7.69983 13.2644)
(-5.24364e-23 9.13999 15.7415)
(-4.93482e-23 8.75696 15.1266)
(-4.02993e-23 8.73879 15.0746)
(-4.33076e-23 8.73252 15.0858)
(2.66043e-22 8.73697 15.0869)
(2.35991e-22 8.73282 15.092)
(2.35634e-22 8.73398 15.0945)
(2.47443e-22 8.73205 15.0987)
(2.38479e-22 8.73206 15.1021)
(2.33371e-22 8.73076 15.1064)
(2.36162e-22 8.73099 15.1099)
(2.47159e-22 8.72926 15.115)
(2.39747e-22 8.73074 15.1183)
(2.37041e-22 8.72789 15.1246)
(2.36213e-22 8.73085 15.1275)
(2.30383e-22 8.72597 15.1316)
(2.45582e-22 8.75005 15.1733)
(2.69019e-22 9.07423 15.7439)
(2.10466e-22 7.73509 13.4816)
(-2.64482e-25 7.87973 13.5702)
(1.24203e-23 9.07253 15.6298)
(1.16359e-23 8.73614 15.0909)
(9.6497e-24 8.72619 15.055)
(1.0173e-23 8.72015 15.0647)
(-6.357e-23 8.72389 15.0658)
(-5.5866e-23 8.72046 15.0704)
(-5.62615e-23 8.7211 15.0732)
(-5.87422e-23 8.71966 15.077)
(-5.70428e-23 8.71937 15.0804)
(-5.71041e-23 8.71842 15.0844)
(-5.6711e-23 8.71839 15.088)
(-5.78887e-23 8.71701 15.0927)
(-5.73174e-23 8.71831 15.096)
(-5.69179e-23 8.71547 15.1022)
(-5.58905e-23 8.71909 15.1046)
(-5.52746e-23 8.7134 15.1105)
(-5.79738e-23 8.73225 15.1373)
(-6.36463e-23 9.00613 15.6274)
(-4.80628e-23 7.90964 13.7798)
(4.49339e-26 8.05937 13.8752)
(-2.93051e-24 8.99948 15.5081)
(-2.69591e-24 8.7178 15.0597)
(-2.32731e-24 8.71455 15.0366)
(-2.33798e-24 8.70878 15.0447)
(1.52677e-23 8.71173 15.0461)
(1.32363e-23 8.70916 15.0501)
(1.33086e-23 8.70929 15.053)
(1.3839e-23 8.7083 15.0564)
(1.35352e-23 8.70781 15.0598)
(1.38464e-23 8.70712 15.0635)
(1.35817e-23 8.70686 15.0672)
(1.34653e-23 8.70588 15.0715)
(1.3512e-23 8.70673 15.0749)
(1.35653e-23 8.70427 15.0809)
(1.31617e-23 8.70799 15.0831)
(1.31733e-23 8.70176 15.0904)
(1.36298e-23 8.71697 15.1052)
(1.49944e-23 8.93309 15.5027)
(1.09438e-23 8.08317 14.0752)
(-6.12701e-27 8.23966 14.1804)
(6.8831e-25 8.9206 15.3748)
(6.15373e-25 8.70165 15.0324)
(5.62036e-25 8.70362 15.0189)
(5.2267e-25 8.69851 15.0253)
(-3.65236e-24 8.70034 15.0269)
(-3.12284e-24 8.69873 15.0302)
(-3.12087e-24 8.6984 15.033)
(-3.23362e-24 8.6977 15.0361)
(-3.17752e-24 8.69712 15.0394)
(-3.3153e-24 8.69657 15.0428)
(-3.2263e-24 8.69617 15.0464)
(-3.12607e-24 8.69556 15.0503)
(-3.14828e-24 8.69586 15.054)
(-3.20215e-24 8.69426 15.0594)
(-3.07651e-24 8.69726 15.0619)
(-3.10605e-24 8.69129 15.0701)
(-3.18914e-24 8.70425 15.0762)
(-3.50906e-24 8.85558 15.3705)
(-2.46975e-24 8.25515 14.3662)
(4.47282e-28 8.42319 14.4926)
(-1.62017e-25 8.83808 15.2311)
(-1.40048e-25 8.69069 15.012)
(-1.36294e-25 8.69522 15.0051)
(-1.13808e-25 8.69182 15.0089)
(8.73027e-25 8.69212 15.0105)
(7.37847e-25 8.69115 15.0126)
(7.32135e-25 8.69035 15.0148)
(7.5652e-25 8.68951 15.0171)
(7.4323e-25 8.68863 15.0197)
(7.89303e-25 8.68775 15.0224)
(7.65614e-25 8.68689 15.0254)
(7.32563e-25 8.68605 15.0287)
(7.34198e-25 8.68543 15.0321)
(7.55723e-25 8.68433 15.0364)
(7.197e-25 8.68532 15.0397)
(7.30439e-25 8.68103 15.0469)
(7.48619e-25 8.69107 15.0483)
(8.20779e-25 8.77265 15.2324)
(5.54789e-25 8.42326 14.6449)
(3.82708e-29 8.61058 14.8239)
(3.17455e-26 8.75271 15.0801)
(2.67494e-26 8.69281 15.0032)
(2.75998e-26 8.695 15.0014)
(2.01912e-26 8.69442 15.0021)
(-1.72311e-25 8.69407 15.0026)
(-1.4583e-25 8.69366 15.0031)
(-1.43239e-25 8.69305 15.0038)
(-1.48038e-25 8.69232 15.0046)
(-1.44354e-25 8.69143 15.0056)
(-1.5522e-25 8.69038 15.0067)
(-1.51103e-25 8.68914 15.008)
(-1.4455e-25 8.68772 15.0095)
(-1.43597e-25 8.68604 15.0113)
(-1.48929e-25 8.68417 15.0133)
(-1.41083e-25 8.68208 15.0156)
(-1.4357e-25 8.67892 15.0189)
(-1.47234e-25 8.67938 15.02)
(-1.60498e-25 8.69418 15.0844)
(-1.03548e-25 8.5934 14.8933)
(-6.12205e-27 -2.5759 17.005)
(-2.40218e-26 -8.04321 13.6246)
(-1.50909e-26 -5.17871 14.4648)
(1.65494e-26 -5.00344 14.0622)
(7.55856e-26 -4.09603 14.01)
(1.69114e-25 -3.54791 13.8241)
(2.91099e-25 -2.99122 13.6556)
(5.32906e-25 -2.54345 13.4611)
(1.71767e-24 -2.16358 13.2603)
(6.41079e-24 -1.86398 13.0537)
(1.8324e-23 -1.63791 12.8407)
(3.77487e-23 -1.48131 12.6109)
(5.51198e-23 -1.38587 12.3477)
(5.08056e-23 -1.35526 12.0296)
(3.52193e-24 -1.40642 11.6349)
(-1.08828e-22 -1.51199 11.1771)
(-3.20364e-22 -1.69585 10.6332)
(-6.21593e-22 -2.22844 9.7283)
(-7.55577e-22 -2.31891 8.39265)
(-2.58308e-22 0.286696 6.23126)
(-4.52204e-27 -11.0868 28.2758)
(8.88683e-26 -16.9019 24.7582)
(1.31423e-25 -11.9006 25.1491)
(4.43688e-26 -12.5334 23.4319)
(-2.20819e-25 -10.7853 22.684)
(-2.33622e-25 -10.0984 21.593)
(9.01451e-25 -9.07961 20.6828)
(3.97227e-24 -8.27839 19.7498)
(8.86169e-24 -7.47959 18.8721)
(1.18203e-23 -6.75868 18.0077)
(2.6209e-24 -6.07705 17.1446)
(-3.0814e-23 -5.44692 16.2431)
(-8.68471e-23 -4.87117 15.2503)
(-1.38164e-22 -4.36025 14.0859)
(-1.15545e-22 -3.91092 12.6857)
(2.83521e-22 -3.47574 11.0391)
(2.2832e-21 -2.97027 9.07095)
(8.7764e-21 -2.35281 6.45664)
(2.17965e-20 -1.34419 2.817)
(2.90986e-20 0.407957 -1.11422)
(1.3737e-27 -14.1542 30.4337)
(-2.63313e-25 -17.961 27.6734)
(-3.45471e-25 -13.3455 27.5184)
(-5.32778e-25 -14.1595 25.2403)
(-3.43473e-25 -12.0945 24.3304)
(1.23708e-24 -11.5728 22.808)
(4.35046e-24 -10.4437 21.6669)
(1.00407e-23 -9.67676 20.4547)
(1.76521e-23 -8.83752 19.3498)
(1.43676e-23 -8.05599 18.1993)
(-3.96111e-23 -7.1758 16.8737)
(-2.01757e-22 -6.08774 15.0924)
(-4.73376e-22 -4.67685 12.6001)
(-6.05367e-22 -3.0574 9.4587)
(5.84582e-22 -1.57938 6.20375)
(7.06702e-21 -0.4156 3.33679)
(2.67513e-20 0.623495 0.734873)