/*--------------------------------*- C++ -*----------------------------------*\
| =========                 |                                                 |
| \\      /  F ield         | OpenFOAM: The Open Source CFD Toolbox           |
|  \\    /   O peration     | Version:  4.1                                   |
|   \\  /    A nd           | Web:      www.OpenFOAM.org                      |
|    \\/     M anipulation  |                                                 |
\*---------------------------------------------------------------------------*/
FoamFile
{
    version     2.0;
    format      ascii;
    class       volScalarField;
    location    "13";
    object      p;
}
// * * * * * * * * * * * * * * * * * * * * * * * * * * * * * * * * * * * * * //

dimensions      [0 2 -2 0 0 0 0];

internalField   nonuniform List<scalar> 
1280
(
0.172801
0.191083
0.419603
0.376155
1.04824
1.05865
1.02959
1.01566
0.974915
0.958968
0.284302
-0.0626253
-0.645002
-2.42098
-2.83238
-4.50562
-8.04746
-9.30529
-9.06323
-21.2988
-13.4425
-2.42831
15.7198
30.8035
35.3007
37.7834
39.4074
20.2501
23.2582
22.1345
20.6848
19.4245
17.5716
15.3074
12.8499
10.143
7.37412
4.21422
1.50621
-3.60761
10.5007
8.2986
11.0148
16.9508
29.5232
28.3932
28.4997
28.566
28.3387
28.7145
28.5697
28.2187
28.2883
27.7517
27.4668
30.1402
15.2616
9.18656
6.33097
7.8449
-3.23537
2.28268
5.22927
8.71092
11.7604
14.7616
17.4996
20.0452
22.171
23.707
25.441
26.8086
24.0862
46.8384
44.4034
41.4884
36.629
21.2816
3.42793
-7.31224
-15.1012
-2.45192
2.44665
5.45618
7.69672
11.2298
11.7442
12.0364
12.5872
12.7161
12.1589
11.4751
10.8068
9.29391
8.40978
7.68417
5.6595
2.67275
0.943922
1.68379
-0.0751476
0.64473
1.36717
1.14273
1.00459
0.921344
0.895437
1.02024
0.370888
-1.62641
-2.46719
-13.9436
-11.9593
-5.74951
-0.830352
2.34021
2.49966
1.75755
1.81838
-0.0698966
2.53439
4.50129
3.68507
3.10838
2.38526
1.23749
0.573017
-0.435271
-1.72056
-6.27402
-18.592
-15.3154
-4.16468
2.2073
6.36516
6.26584
4.86761
4.66094
-0.189222
3.95986
7.41171
6.1625
4.99726
3.56675
1.68982
0.658659
-1.01296
-4.1474
-15.4014
-18.0016
-18.8505
-3.15697
4.66327
10.2205
10.1804
7.5379
7.27338
0.00474092
5.07934
9.50239
8.02833
6.35981
4.16065
1.19821
-0.542879
-2.82325
-6.09466
-17.4676
-16.821
-25.5053
-3.10923
6.94005
14.3076
14.3392
10.4765
9.4741
0.310783
5.48756
10.1264
8.97469
6.97264
4.13023
0.112065
-2.22289
-5.15459
-8.2109
-15.8123
-18.6927
-30.3525
-3.18915
9.42614
18.4814
18.329
12.7804
11.1681
0.267265
4.63581
9.60382
9.14634
7.04259
3.44364
-1.52037
-4.35827
-7.49837
-9.6682
-14.0047
-25.5736
-32.6143
-3.86379
11.8904
22.2019
21.7938
15.9408
10.7891
-0.352794
2.47059
7.75643
8.43869
6.27367
1.88576
-3.63945
-6.33983
-8.9847
-9.65542
-11.9891
-31.1459
-32.5361
-4.56249
14.4888
25.982
24.5391
16.4521
9.81076
-1.42305
-0.190552
4.79657
6.89354
4.90119
-0.185012
-6.28536
-7.99656
-9.49686
-8.09092
-9.12302
-31.5191
-28.6446
-4.71434
16.2024
27.3245
26.7908
20.8541
11.3935
-2.80365
-2.66773
1.84935
4.75956
3.14721
-2.26131
-9.17988
-9.49237
-9.52902
-5.61824
-5.09462
-26.4373
-21.4923
-4.38864
18.2162
29.3134
24.894
26.0181
40.2171
-4.17111
-4.63321
-0.329005
2.42787
1.21589
-4.1037
-12.1361
-10.9504
-9.41357
-2.60708
0.340751
-17.1175
-13.6687
-4.09332
16.0384
21.62
20.1637
32.5324
35.8233
-4.78225
-5.79856
-2.12946
0.147338
-0.711885
-5.63534
-15.0113
-12.2871
-9.02078
0.811056
7.17514
-4.50634
-5.1167
-2.82026
10.7358
11.9791
13.177
32.7371
32.9764
-4.70401
-6.12011
-3.84584
-1.80028
-2.48139
-6.70835
-17.3445
-13.2899
-8.19595
4.17615
14.6098
8.45167
4.59473
1.00898
7.67367
5.75157
5.03533
20.5313
35.9725
-4.36214
-6.0438
-4.98678
-3.2246
-3.9229
-7.14052
-18.4848
-13.7261
-6.95617
6.78307
20.8159
17.292
12.6685
5.69644
3.90816
-8.76094
-16.8851
-4.10248
6.33982
-3.90956
-5.66218
-5.41145
-4.14942
-4.95238
-6.96055
-17.9987
-13.4158
-5.38999
8.29531
24.4515
21.3962
16.8909
8.92467
0.771295
-18.541
-24.3246
-12.4176
4.96342
-3.43963
-5.19958
-5.45753
-4.6505
-5.45633
-6.15489
-15.6705
-12.3426
-3.66888
8.51461
24.2534
22.8915
17.7254
9.24013
-2.30151
-21.8513
-23.9181
-11.3325
4.27872
-2.89919
-4.63494
-5.22648
-4.82121
-5.63392
-5.18697
-11.9778
-10.7316
-2.0244
7.89521
21.4543
23.4824
16.7821
7.94636
-5.07815
-23.0629
-25.3813
-12.875
2.06542
-2.59163
-4.20682
-4.88272
-4.58893
-5.07189
-3.51467
-7.18921
-8.61297
-0.620181
6.82175
18.2341
22.85
14.7133
6.34165
-5.95476
-20.1519
-22.6381
-9.40095
1.27236
-2.02735
-3.34889
-4.183
-4.20721
-4.77818
-2.91244
-3.13957
-6.40801
0.377735
5.71725
15.1951
20.5707
10.6117
4.55205
-4.77368
-14.2393
-15.0067
-6.27255
0.420738
-1.94603
-2.6574
-3.37205
-3.12616
-2.67745
0.108084
1.15119
-5.78275
0.441557
4.49835
12.0594
16.2142
5.49583
3.36239
-1.84504
-6.59444
-7.05415
-3.44132
0.0439304
-0.762574
-0.584864
-1.47538
-1.91656
-2.75714
-2.81272
-0.487755
-5.42298
-0.469088
1.5092
5.04371
6.98858
0.899893
0.636385
-0.597124
-1.55834
-1.50523
-0.939519
-0.0692166
-46.8253
-42.9495
-37.5475
-33.6557
-31.26
-29.6522
-29.3568
-29.5831
-29.861
-30.1824
-30.5361
-30.7966
-30.901
-30.7823
-30.4162
-29.6968
-28.7487
-27.2684
-25.9718
-23.7753
-139.386
-137.304
-128.741
-119.655
-112.352
-106.149
-100.689
-95.8821
-91.6549
-87.9657
-84.7654
-82.0113
-79.6633
-77.6354
-75.8849
-74.194
-72.6164
-70.4549
-68.3418
-64.8335
-81.8649
-89.4245
-95.1609
-98.3146
-101.65
-105.009
-107.827
-110.174
-111.756
-112.599
-112.678
-112.081
-110.928
-109.377
-107.649
-105.872
-104.328
-102.651
-101.276
-97.9798
-38.0171
-45.53
-50.9728
-56.6228
-62.1054
-68.139
-74.1428
-80.2977
-86.1954
-91.7518
-96.6729
-100.825
-104.013
-106.098
-106.971
-106.795
-105.906
-105.043
-105.201
-105.02
18.1238
13.2041
10.1581
6.7387
4.17155
1.10444
-1.65719
-4.54392
-7.2296
-9.93751
-12.5561
-15.1682
-17.7261
-20.1587
-22.2322
-23.785
-24.5043
-23.6669
-23.3911
-27.8939
39.8772
40.4642
40.6163
40.5315
40.3615
39.6081
38.6245
36.8561
34.5574
31.4837
27.7444
23.3511
18.4587
13.3794
8.66469
4.9066
2.44886
1.26714
1.50202
-0.576452
14.8723
17.4208
18.8462
20.4014
22.1985
23.6711
25.5275
27.0941
28.6254
29.7659
30.4006
30.2972
29.3161
27.4745
25.209
23.1078
22.1263
22.1138
22.7601
22.4929
-1.58568
0.58897
1.97303
2.87343
4.46978
5.268
6.59464
7.57426
8.69178
9.77908
10.912
12.1014
13.3507
14.6359
15.9416
17.2668
18.554
19.9365
20.9125
22.2138
-25.6228
-23.3191
-21.4695
-20.609
-18.4861
-17.5501
-15.8019
-14.5541
-13.1101
-11.7612
-10.4176
-9.07684
-7.73881
-6.36506
-4.96853
-3.47286
-2.00083
-0.320465
0.936994
2.76408
-49.0911
-47.5117
-45.3159
-44.9398
-42.46
-41.7853
-39.7605
-38.5308
-36.8517
-35.3326
-33.7278
-32.0997
-30.4417
-28.7196
-26.9745
-25.1236
-23.3384
-21.3358
-19.8312
-17.406
-76.6786
-77.3251
-75.3019
-76.2248
-74.2118
-74.7399
-73.2812
-73.1213
-72.1134
-71.4959
-70.5867
-69.6389
-68.5081
-67.1665
-65.6279
-63.7542
-61.7304
-59.0015
-56.8029
-53.3141
-80.6713
-84.634
-84.0715
-87.1188
-87.1112
-89.8068
-90.4538
-92.6346
-93.7514
-95.4164
-96.497
-97.4536
-97.924
-98.0037
-97.704
-97.0626
-96.23
-94.9385
-93.8186
-90.7738
-45.8147
-50.7025
-50.8534
-55.2381
-56.2141
-60.2331
-62.1509
-65.8523
-68.5834
-72.1249
-75.2166
-78.4139
-81.1817
-83.6087
-85.501
-87.0512
-88.0565
-88.2876
-89.1304
-88.8466
-6.52045
-8.69494
-7.35116
-10.0379
-8.46297
-10.5624
-9.76338
-11.0572
-11.0973
-11.9953
-12.565
-13.4512
-14.3978
-15.7121
-17.513
-19.9705
-22.7011
-24.6281
-26.4972
-30.2381
-13.8235
-13.6689
-10.8156
-12.1755
-8.75072
-9.44888
-7.00944
-6.61208
-5.07533
-4.23502
-3.22278
-2.48706
-1.87349
-1.47299
-1.22874
-1.16062
-1.29874
-1.76999
-2.08776
-2.82095
-35.3163
-36.1548
-32.5498
-34.9743
-30.8738
-31.7208
-29.0138
-28.0558
-26.0366
-24.2787
-22.2984
-20.3081
-18.3277
-16.471
-14.8273
-13.369
-11.8105
-9.74144
-8.01918
-5.82347
-37.1303
-40.6145
-37.9077
-43.9937
-42.9323
-46.9799
-48.1183
-50.5836
-52.2435
-53.9297
-55.2874
-56.3951
-57.2124
-57.6756
-57.7024
-57.0167
-55.5057
-52.8139
-50.5334
-47.5968
-37.4086
-44.7329
-36.7983
-44.0849
-42.452
-46.2013
-47.91
-50.9252
-53.6722
-56.7377
-59.8054
-62.9585
-66.1084
-69.1732
-71.905
-73.9169
-74.582
-73.8401
-73.2708
-71.7896
-14.4109
-37.4542
-29.4837
-40.9073
-43.8781
-50.7955
-55.9609
-61.4319
-66.1553
-70.3466
-73.7574
-76.3352
-77.9823
-78.6132
-78.1276
-76.4234
-73.389
-70.2762
-68.1859
-66.3445
677.125
594.125
544.915
488.502
439.359
391.916
347.806
306.143
266.948
229.946
194.982
161.866
130.395
100.545
72.4572
45.397
19.7876
-0.0666933
-23.5868
-61.0126
684.701
601.701
552.492
496.079
446.936
399.493
355.383
313.719
274.524
237.521
202.557
169.44
137.968
108.118
80.0291
52.969
27.3597
7.5044
-16.0166
-53.4423
-6.82137
-29.8647
-21.8939
-33.3174
-36.2877
-43.2046
-48.3693
-53.8396
-58.5622
-62.7524
-66.1622
-68.7388
-70.3845
-71.0139
-70.527
-68.8206
-65.7824
-62.6691
-60.5792
-58.74
-29.8266
-37.153
-29.2195
-36.5076
-34.8761
-38.6271
-40.3374
-43.3544
-46.1032
-49.1709
-52.2408
-55.3963
-58.5488
-61.6162
-64.3501
-66.3636
-67.0277
-66.2884
-65.7239
-64.2438
-29.5885
-33.0747
-30.369
-36.4564
-35.3965
-39.4459
-40.586
-43.0533
-44.7152
-46.4035
-47.7632
-48.8731
-49.6924
-50.1575
-50.1856
-49.5002
-47.9881
-45.2948
-43.0168
-40.0796
-27.7661
-28.6066
-25.0011
-27.4273
-23.3275
-24.1756
-21.4703
-20.5134
-18.496
-16.7396
-14.7612
-12.7724
-10.7933
-8.93705
-7.29187
-5.82878
-4.26366
-2.18891
-0.464431
1.73428
-6.27943
-6.1201
-3.26542
-4.62214
-1.19555
-1.89018
0.551682
0.953609
2.49462
3.34107
4.35992
5.10343
5.72518
6.13426
6.38692
6.46285
6.33072
5.85909
5.54064
4.81594
1.16089
-1.00449
0.343501
-2.33669
-0.754728
-2.84801
-2.0418
-3.3296
-3.36371
-4.25673
-4.82255
-5.70608
-6.6515
-7.96613
-9.76934
-12.2311
-14.9651
-16.8917
-18.7559
-22.4942
-38.0776
-42.9637
-43.1141
-47.4984
-48.4733
-52.4917
-54.4083
-58.1086
-60.8382
-64.3779
-67.4674
-70.6622
-73.4274
-75.8525
-77.7442
-79.2951
-80.3032
-80.5352
-81.3799
-81.1102
-72.9765
-76.9436
-76.3839
-79.4331
-79.429
-82.126
-82.7761
-84.9592
-86.0791
-87.7473
-88.8319
-89.7931
-90.269
-90.3554
-90.0639
-89.4319
-88.6072
-87.3252
-86.2111
-83.1733
-69.0958
-69.7503
-67.731
-68.6599
-66.6529
-67.1882
-65.7366
-65.5855
-64.5863
-63.9786
-63.0791
-62.1414
-61.0201
-59.6871
-58.156
-56.288
-54.2678
-51.5369
-49.3377
-45.848
-41.5399
-39.9637
-37.7689
-37.3954
-34.917
-34.2447
-32.2214
-30.9938
-29.3162
-27.7985
-26.1947
-24.5672
-22.9092
-21.1865
-19.4404
-17.5879
-15.8008
-13.7958
-12.2894
-9.86035
-18.0563
-15.7535
-13.904
-13.0446
-10.9218
-9.98653
-8.23867
-6.99131
-5.5477
-4.19901
-2.85551
-1.51459
-0.176185
1.19818
2.59532
4.09165
5.56418
7.24545
8.50328
10.3318
5.9748
8.152
9.53796
10.4399
12.0384
12.8387
14.1676
15.15
16.2706
17.3615
18.4982
19.691
20.943
22.2296
23.5363
24.8622
26.1509
27.5362
28.5142
29.8183
22.5182
25.0693
26.4961
28.0527
29.851
31.3239
33.1801
34.7451
36.2733
37.408
38.0341
37.9212
36.9311
35.0856
32.822
30.7283
29.7602
29.7589
30.4093
30.143
47.4477
48.0339
48.181
48.0915
47.9143
47.1542
46.1637
44.3895
42.0874
39.0142
35.2807
30.9005
26.0281
20.9732
16.2825
12.5473
10.108
8.9327
9.16887
7.09976
25.8758
20.9619
17.9023
14.4824
11.9187
8.85977
6.10703
3.23138
0.5573
-2.1415
-4.75623
-7.37086
-9.93794
-12.3854
-14.4779
-16.0503
-16.7853
-15.9594
-15.6802
-20.1779
-30.1099
-37.6003
-43.0574
-48.702
-54.182
-60.2139
-66.2174
-72.3759
-78.2861
-83.8589
-88.7964
-92.9634
-96.1662
-98.2639
-99.1506
-98.986
-98.1072
-97.2666
-97.4324
-97.2687
-73.5376
-81.1292
-86.9612
-90.1547
-93.5433
-96.9504
-99.8143
-102.209
-103.839
-104.726
-104.842
-104.28
-103.156
-101.632
-99.9277
-98.1692
-96.6397
-94.9752
-93.6068
-90.3389
-132.283
-130.151
-121.558
-112.394
-105.031
-98.7809
-93.2911
-88.4672
-84.2307
-80.5391
-77.3387
-74.5854
-72.2378
-70.2085
-68.454
-66.7556
-65.1683
-62.9981
-60.8544
-57.3531
-37.3322
-33.5225
-28.177
-24.3507
-21.998
-20.4328
-20.1357
-20.4456
-20.8493
-21.2711
-21.7151
-22.0585
-22.2393
-22.1944
-21.9016
-21.2583
-20.3865
-18.9903
-17.7602
-15.6652
)
;

boundaryField
{
    outletWall
    {
        type            fixedValue;
        value           uniform 0;
    }
    fineWalls
    {
        type            zeroGradient;
    }
    fineFrontAndBack
    {
        type            zeroGradient;
    }
    fineplugLeft
    {
        type            cyclicAMI;
        value           nonuniform List<scalar> 
20
(
-19.7417
-20.4762
-20.9719
-21.5242
-21.7288
-21.763
-21.5644
-21.2065
-20.7524
-20.2919
-19.719
-19.2371
-19.6165
-21.5378
-16.1651
-17.9478
-20.7639
-26.894
-34.8452
-40.1488
)
;
    }
    fineplugRight
    {
        type            cyclicAMI;
        value           nonuniform List<scalar> 
20
(
-13.1793
-13.7516
-14.1464
-14.567
-14.6545
-14.5689
-14.2556
-13.7824
-13.2126
-12.6307
-11.9287
-11.3177
-11.5392
-12.5202
-7.46555
-9.30069
-12.1548
-18.2853
-26.1324
-31.3282
)
;
    }
    inletOutletLeft
    {
        type            cyclicAMI;
        value           nonuniform List<scalar> 
20
(
-19.7417
-20.4762
-20.9719
-21.5242
-21.7288
-21.763
-21.5644
-21.2065
-20.7524
-20.2919
-19.719
-19.2371
-19.6165
-21.5378
-16.1651
-17.9478
-20.7639
-26.894
-34.8452
-40.1488
)
;
    }
    inletLeft
    {
        type            zeroGradient;
    }
    inletWallsLeft
    {
        type            zeroGradient;
    }
    inletFacesLeft
    {
        type            zeroGradient;
    }
    inletOutletRight
    {
        type            cyclicAMI;
        value           nonuniform List<scalar> 
20
(
-13.1793
-13.7516
-14.1464
-14.567
-14.6545
-14.5689
-14.2556
-13.7824
-13.2126
-12.6307
-11.9287
-11.3177
-11.5392
-12.5202
-7.46555
-9.30069
-12.1548
-18.2853
-26.1324
-31.3282
)
;
    }
    inletRight
    {
        type            zeroGradient;
    }
    inletWallsRight
    {
        type            zeroGradient;
    }
    inletFacesRight
    {
        type            zeroGradient;
    }
}


// ************************************************************************* //
