/*--------------------------------*- C++ -*----------------------------------*\
| =========                 |                                                 |
| \\      /  F ield         | OpenFOAM: The Open Source CFD Toolbox           |
|  \\    /   O peration     | Version:  4.1                                   |
|   \\  /    A nd           | Web:      www.OpenFOAM.org                      |
|    \\/     M anipulation  |                                                 |
\*---------------------------------------------------------------------------*/
FoamFile
{
    version     2.0;
    format      ascii;
    class       surfaceScalarField;
    location    "13";
    object      phi;
}
// * * * * * * * * * * * * * * * * * * * * * * * * * * * * * * * * * * * * * //

dimensions      [0 3 -1 0 0 0 0];

internalField   nonuniform List<scalar> 
2360
(
-3794.22
-1775.55
-2018.66
-1775.55
-1775.55
286.854
-2062.41
286.859
286.86
286.864
2711.22
-2424.36
2711.22
2711.22
5568.35
-2857.13
5568.35
5568.35
8884.37
-3316.02
8884.37
8884.36
13056.9
-4172.51
13056.9
13056.9
13710
15059.3
16923.4
18775.6
20459.7
21976.7
17549
5848.01
18843.1
20035.5
21128.7
22123.3
23019.6
23818.8
24522.8
25134.2
25654
26082.8
26413.2
26638.7
26708.8
13621.6
13087.2
13621.6
13621.6
13621.6
1065.27
12556.3
1065.27
1065.27
1065.27
506.076
559.198
506.079
506.08
-2307.57
2813.65
-2307.57
-2307.57
-2307.56
-15223.5
12915.9
-15223.5
-15223.5
-15223.5
-27388.7
12165.2
-27304.3
-27071.8
-26737.9
-26307.5
-25786.8
-25174.7
-24469.9
-23669.8
-22772.5
-21776.9
-20683.4
-19491.3
-18198.4
-21569.1
4787.46
-20053.5
-18372.1
-16524.4
-14668.3
-13331.9
-12676.2
-12676.2
-12676.2
-6586.78
-6089.38
-6586.78
-6586.78
-1783.76
-4803.01
-1783.76
-1783.76
2070.79
-3854.55
2070.79
2070.79
5202.31
-3131.52
5202.31
5202.31
5202.31
8007.73
-2805.42
8007.73
8007.73
10926.5
-2918.77
-3253.19
-6048.54
-2646.76
-8520.36
-2554.75
-6559.91
-2565.72
-4948.37
-2815.95
-5891.83
-3549.98
-7874.3
-4742.88
-9441.54
-5930.69
-11499.5
-6307.35
-14298.2
-4678.84
-14894
-950.684
-5049.76
1269.29
12025.7
2376.38
21013
3258.83
23291.1
3707.02
21143.4
3780.46
15710.4
3683.5
8389.8
3603.77
2285.13
-3538.82
-2433.39
-6764.24
-2016.76
-8936.99
-2541.61
-6035.06
-3127.69
-4362.29
-4072.77
-4946.75
-5506.92
-6440.15
-7187.83
-7760.63
-8538.83
-10148.5
-8894.87
-13942.2
-7055.13
-16733.8
-1835.25
-10269.6
1392.07
8798.33
2085.87
20319.2
2943.67
22433.3
3497.69
20589.4
3737.4
15470.7
3839.27
8287.94
3624.26
2500.13
-2719.98
-299.592
-7050.12
-952.241
-8284.34
-2484.31
-4503
-3755.99
-3090.61
-5188.12
-3514.61
-6853.66
-4774.61
-8519.61
-6094.67
-9767.76
-8900.32
-10207.2
-13502.8
-8793.9
-18147.1
-3514.31
-15549.2
1048.63
4235.39
1733.7
19634.2
2429.45
21737.5
3078.7
19940.2
3554.69
14994.7
3966.43
7876.2
3904.23
2562.33
-1947.27
1722.38
-6945.35
84.2987
-6646.26
-2350.29
-2068.41
-4408.1
-1032.79
-6292.18
-1630.54
-8164.33
-2902.47
-9788.39
-4470.61
-10906.9
-7781.83
-11352.4
-13057.2
-10384.4
-19115.1
-6283.16
-19650.5
-410.084
-1637.68
1230.69
17993.4
1647.9
21320.3
2401.43
19186.6
3161.84
14234.3
3946.91
7091.13
4277.82
2231.42
-1524.01
2800.31
-6616.05
731.81
-4577.76
-2082.6
745.995
-4807.28
1691.88
-7161.46
723.643
-9171.16
-892.766
-10551.6
-3090.16
-11294.8
-7038.67
-11544.1
-12807.9
-10989.1
-19670.1
-8342.94
-22296.7
-2309.88
-7670.74
275.746
15407.8
541.619
21054.4
1442.92
18285.3
2568.25
13109
3800.27
5859.12
4739.19
1292.49
-1587.83
3252.89
-6184.42
1212.29
-2537.17
-1677.86
3636.15
-4649.53
4663.55
-7401.69
3475.8
-9592.57
1298.11
-10644.5
-2038.27
-10817.5
-6865.59
-10690.5
-12934.9
-10412.4
-19948.2
-9173.06
-23536
-4599.97
-12243.8
-1429.46
12237.3
-720.835
20345.8
202.852
17361.6
1812.8
11499
3445.73
4226.19
5114.61
-376.386
-2562.59
3184.38
-5695.53
1427.03
-779.813
-1209.41
6272.59
-4147.94
7602.08
-7004.38
6332.24
-9314.61
3608.35
-10110.3
-1242.61
-9748.07
-7227.79
-9280.82
-13402.1
-9228.57
-20000.4
-9327.72
-23436.9
-6975.36
-14596.2
-3657.69
8919.59
-2266.81
18954.9
-1354.08
16448.9
926.605
9218.33
4181.58
971.214
4118.62
-313.423
6343.49
2760.86
-5136.18
1253.73
727.322
-829.037
8355.36
-3533.77
10306.8
-6297.8
9096.27
-8611.53
5922.08
-9358.67
-495.473
-8792.05
-7794.41
-8230.46
-13963.7
-8381.12
-19849.8
-9486.51
-22331.5
-9079.82
-15002.9
-6176.37
6016.14
-4213.1
16991.7
-2688.61
14924.4
-192.106
6721.82
-1910.97
2690.08
-7388.24
5163.84
11120.5
2101.37
-4477.26
756.961
2071.73
-667.317
9779.63
-2943.91
12583.4
-5503.32
11655.7
-7831.72
8250.48
-8808.58
481.391
-8331.21
-8271.79
-7829.82
-14465.1
-8179.92
-19499.7
-10002.7
-20508.7
-10871.4
-14134.2
-8387.21
3531.91
-6042.06
14646.5
-5771.82
14654.2
-8762.48
9712.48
-13385.6
7313.22
-15029.7
6807.92
9006.67
1235.79
-3680.96
60.7371
3246.78
-798.512
10638.9
-2480.54
14265.4
-4713.13
13888.3
-7056.23
10593.6
-8384.3
1809.46
-8045.83
-8610.26
-7567.26
-14943.7
-8128.83
-18938.1
-10621.4
-18016.1
-12495.6
-12259.9
-10533.1
1569.41
-8456.03
12569.4
-9553.98
15752.1
-13048.5
13207
-14140.5
8405.25
-10399.2
3066.67
1421.07
4.13383
-2710.64
-897.526
4148.44
-1246.23
10987.6
-2204.89
15224.1
-3973.8
15657.2
-6228.9
12848.7
-7809.87
3390.43
-7517.09
-8903.03
-7018.63
-15442.1
-7779.42
-18177.3
-10905.2
-14890.3
-13995.5
-9169.69
-13215.2
789.138
-11463.3
10817.6
-11693.7
15982.5
-12847.9
14361.1
-12333.8
7891.12
-9175.76
-91.3492
-7195.49
-1432.44
-1721.11
-1977.81
4693.82
-1897.25
10907
-2145.55
15472.4
-3343.55
16855.2
-5343.78
14848.9
-6997.17
5043.82
-6703.96
-9196.24
-6247.2
-15898.9
-7129.57
-17294.9
-10486.2
-11533.7
-14620.2
-5035.7
-15516.4
1685.4
-14493.1
9794.24
-14224.8
15714.2
-15445.1
15581.5
-16820.7
9266.72
-16035.2
-876.86
-10674.4
-2712.1
-939.673
-3007.86
4989.58
-2608.37
10507.5
-2303.26
15167.3
-2900.07
17452
-4482.54
16431.4
-6037.84
6599.12
-5763.33
-9470.75
-5453.7
-16208.5
-6340.27
-16408.4
-9135.03
-8738.91
-13286.3
-884.403
-15366.5
3765.58
-15420.8
9848.57
-15020.2
15313.5
-14633.8
15195.1
-12933.1
7566.01
-11488.1
-2321.87
-9075.25
-3830.98
-375.062
-3894.32
5052.92
-3304.54
9917.75
-2651.3
14514
-2714.14
17514.8
-3773.81
17491
-5061.73
7887.04
-4814.62
-9717.86
-4728.38
-16294.8
-5520.36
-15616.4
-7088.73
-7170.54
-10298.5
2325.33
-12611.9
6079
-13167.9
10404.6
-12309.1
14454.6
-9638.94
12525
-4255.07
2182.13
-652.723
-5924.21
-3879.96
-4798.79
-17.5846
-4673.01
4927.14
-4003.1
9247.83
-3181.75
13692.7
-2846.98
17180.1
-3350.44
17994.5
-4184.01
8720.61
-3943.31
-9958.55
-4102
-16136.1
-4688.1
-15030.3
-4557.23
-7301.41
-6270.31
4038.42
-8555.06
8363.74
-9159.71
11009.3
-7848.16
13143.1
-4453
9129.83
-663.866
-1607
2075.84
-8663.92
-5976.64
-5663.04
112.837
-5365.19
4629.29
-4701.96
8584.61
-3860.33
12851.1
-3301.87
16621.6
-3304.92
17997.6
-3514.42
8930.11
-3242.26
-10230.7
-3577.32
-15801
-3966.55
-14641.1
-2579.54
-8688.42
-2301.5
3760.39
-4191.59
10253.8
-4954.14
11771.8
-3688.61
11877.6
-378.194
5819.41
2417.18
-4402.38
3145.27
-9392.01
-6147.38
-6593.9
61.3624
-6112.76
4148.15
-5450.45
7922.3
-4677.52
12078.1
-4031.37
15975.5
-3589.97
17556.1
-3070.66
8410.8
-2769.9
-10531.5
-3133.33
-15437.6
-3283.85
-14490.5
-1805.6
-10166.7
453.007
1501.78
-85.8688
10792.7
-510.992
12196.9
591.199
10775.4
2967.47
3443.13
4378.87
-5813.77
3674.09
-8687.23
-5330.43
-7687.92
-165.729
-6975.68
3435.91
-6224.39
7171.01
-5512.33
11366.1
-4896.25
15359.4
-4154.69
16814.6
-2891.28
7147.39
-2488.51
-10934.2
-2766.05
-15160.1
-2651.81
-14604.8
-1523.07
-11295.4
1387.56
-1408.85
2453.02
9727.25
3179.4
11470.6
4446.23
9508.54
5552.01
2337.35
5105.95
-5367.71
3459.79
-7041.07
-4294.99
-9280.2
-208.226
-8606.48
2762.19
-7675.46
6240
-6929.34
10619.9
-6206.61
14636.6
-4882.84
15490.8
-2848.22
5112.77
-2338.07
-11444.4
-2424.48
-15073.6
-2153.6
-14875.7
-1250.6
-12198.4
1307.26
-3966.71
2973.31
8061.2
4389
10054.9
5683.84
8213.7
5838.68
2182.52
4467.5
-3996.52
2857.33
-5430.9
-3500.07
-10632.2
-10844.5
-10335.8
-9590
-8252.91
-5798.07
-3116.56
-2294.02
-2137.97
-1817.93
-1144.23
555.428
2123.98
3419.45
4324.42
4265.62
3364.92
2500.93
-551.307
-101.849
-497.078
-1403.48
-235.831
-2125.4
50.6093
-2138.65
302.007
-1935.51
520.834
-1735.82
676.971
-1576.45
824.337
-1441.42
945.063
-1313.16
1037.61
-1185.72
1100.61
-1057.66
1133.52
-929.228
1135.66
-801.333
1105.72
-674.083
1041.97
-547.585
940.83
-418.688
798.322
-286.267
600.541
-132.696
332.656
42.4308
262.547
243.819
-345.673
339.266
-1498.93
318.279
-2104.42
315.955
-2136.32
354.367
-1973.93
427.193
-1808.65
519.277
-1668.54
612.376
-1534.52
696.521
-1397.31
765.574
-1254.77
816.268
-1108.35
845.778
-958.741
851.414
-806.97
830.462
-653.135
779.949
-497.074
696.985
-335.726
576.228
-165.512
375.372
68.1581
195.472
222.329
458.019
838.018
-1183.69
1319.9
-1980.81
1309.28
-2093.81
1159.35
-1986.39
1051.46
-1866.04
993.253
-1750.44
951.863
-1627.15
904.897
-1487.56
846.566
-1338.98
775.25
-1183.46
689.907
-1023.01
587.907
-856.744
467.597
-686.662
328.979
-514.519
174.803
-342.902
23.453
-184.382
-87.35
-54.7238
-92.2717
73.0646
-117.851
247.902
340.168
471.751
-1655.45
620.806
-2129.86
448.082
-1921.08
224.045
-1762.35
42.5678
-1684.57
-113.497
-1594.38
-264.793
-1475.86
-420.136
-1332.21
-579.423
-1179.69
-742.188
-1020.69
-907.698
-857.503
-1073.75
-690.687
-1234.14
-526.276
-1376.62
-372.04
-1481.91
-237.622
-1521.01
-145.279
-1450.55
-125.186
-1200.89
-176.603
-674.685
-278.302
-334.518
-53.9503
-1601.5
-218.193
-1965.62
-417.376
-1721.9
-608.743
-1570.99
-810.63
-1482.68
-1025.46
-1379.55
-1242.42
-1258.89
-1456.09
-1118.55
-1666.5
-969.288
-1874.77
-812.425
-2077.94
-654.334
-2263.72
-504.905
-2407
-382.997
-2467.18
-311.863
-2393.98
-310.827
-2148.17
-391.091
-1718.55
-554.8
-1119.2
-775.953
-455.491
-942.017
-790.008
-222.547
-1378.95
-254.559
-1933.61
-253.024
-1723.44
-323.915
-1500.1
-441.436
-1365.16
-570.233
-1250.75
-684.205
-1144.92
-774.344
-1028.41
-835.91
-907.722
-866.559
-781.776
-865.266
-655.626
-831.485
-538.684
-766.383
-448.099
-667.888
-410.357
-531.519
-447.196
-354.812
-567.797
-162.308
-747.305
-15.84
-922.421
20.6529
-978.51
-769.356
-66.9582
-1311.99
4.2467
-2004.82
93.6921
-1812.88
148.474
-1554.88
189.173
-1405.86
225.186
-1286.77
270.116
-1189.85
333.025
-1091.32
421.532
-996.23
541.935
-902.18
695.585
-809.276
875.15
-718.251
1058.52
-631.47
1207.5
-559.333
1274.99
-514.691
1219.13
-511.936
1022.84
-551.02
706.998
-606.574
340.76
-612.273
-428.595
44.2131
-1356.2
99.4031
-2060.01
159.22
-1872.7
221.246
-1616.91
294.808
-1479.42
370.509
-1362.47
447.096
-1266.43
523.877
-1168.1
601.912
-1074.26
682.534
-982.8
767.105
-893.846
855.39
-806.533
943.961
-720.04
1019.35
-634.724
1058.26
-553.598
1027.9
-481.572
901.516
-424.637
668.049
-373.107
357.953
-302.176
-70.6425
140.167
-1496.37
193.155
-2112.99
223.537
-1903.08
266.957
-1660.33
329.488
-1541.95
391.742
-1424.72
454.826
-1329.52
514.207
-1227.48
570.579
-1130.64
620.694
-1032.92
662.159
-935.311
692.761
-837.136
711.612
-738.892
717.463
-640.575
706.298
-542.433
667.038
-442.312
583.299
-340.897
436.447
-226.254
223.879
-89.6062
153.237
221.216
-1717.59
247.761
-2139.54
262.018
-1917.34
307.545
-1705.85
376.084
-1610.49
441.807
-1490.44
512.906
-1400.62
583.729
-1298.31
656.642
-1203.55
724.064
-1100.34
780.042
-991.288
816.954
-874.048
829.136
-751.073
812.306
-623.744
764.056
-494.182
681.744
-359.999
562.582
-221.734
401.513
-65.1844
200.554
111.354
353.791
239.335
-1956.92
206.488
-2106.69
214.622
-1925.47
261.148
-1752.38
328.056
-1677.4
393.458
-1555.85
471.29
-1478.45
552.985
-1380
641.151
-1291.71
722.75
-1181.94
791.226
-1059.76
836.716
-919.538
852.718
-767.075
834.041
-605.066
777.854
-437.995
677.557
-259.701
507.982
-52.1587
316.941
125.857
158.082
270.215
511.872
132.13
-2089.05
32.1474
-2006.71
14.2172
-1907.54
17.5887
-1755.75
31.2323
-1691.04
47.9365
-1572.55
75.9368
-1506.45
109.53
-1413.59
147.558
-1329.74
179.283
-1213.66
199.782
-1080.26
200.145
-919.899
174.521
-741.449
124.105
-554.648
58.6298
-372.516
-2.56003
-198.505
-6.47525
-48.2359
-37.2402
156.627
-97.9455
330.923
413.927
-33.8848
-2055.17
-142.077
-1898.52
-208.916
-1840.7
-279.763
-1684.9
-347.551
-1623.25
-417.165
-1502.93
-486.582
-1437.03
-555.768
-1344.41
-623.938
-1261.57
-687.359
-1150.24
-744.956
-1022.66
-799.53
-865.325
-858
-682.979
-920.827
-491.819
-980.528
-312.816
-1027.5
-151.533
-1045.27
-30.46
-921.413
32.7669
-576.879
-13.6111
-162.952
-83.972
-1971.19
-156.092
-1826.39
-229.383
-1767.41
-323.999
-1590.29
-415.05
-1532.2
-522.562
-1395.42
-639.56
-1320.03
-769.074
-1214.89
-902.566
-1128.08
-1026.61
-1026.2
-1129.92
-919.353
-1202.45
-792.791
-1242.09
-643.337
-1254.66
-479.252
-1236.68
-330.788
-1159.41
-228.807
-993.999
-195.869
-699.145
-262.085
-307.4
-405.355
-470.352
0.983784
-1972.17
-2.97838
-1822.43
-1.87165
-1768.52
-15.4761
-1576.68
-27.11
-1520.57
-46.3828
-1376.14
-74.1222
-1292.29
-108.906
-1180.1
-149.495
-1087.49
-185.187
-990.504
-206.501
-898.038
-197.678
-801.612
-143.966
-697.047
-42.6818
-580.533
89.7684
-463.234
233.436
-372.47
359.401
-321.832
397.024
-299.706
271.848
-280.177
-198.504
47.9984
-2020.17
68.2064
-1842.64
105.823
-1806.13
146.577
-1617.43
184.97
-1558.96
232.723
-1423.9
277.609
-1337.18
328.652
-1231.15
378.875
-1137.71
431.603
-1043.23
486.214
-952.648
547.773
-863.17
623.42
-772.693
718
-675.112
816.299
-561.533
868.283
-424.453
819.479
-273.028
663.043
-143.27
392.59
-9.72359
194.086
11.0446
-2031.22
-4.5126
-1827.08
3.89716
-1814.54
31.5824
-1645.12
59.3903
-1586.76
106.705
-1471.21
159.655
-1390.12
226.055
-1297.55
302.051
-1213.7
388.198
-1129.38
483.039
-1047.49
584.277
-964.407
685.693
-874.107
773.169
-762.588
821.216
-609.579
786.403
-389.639
612.151
-98.7748
361.714
107.168
172.475
179.517
366.561
-155.454
-1875.76
-325.507
-1657.03
-459.022
-1681.02
-548.966
-1555.17
-628.175
-1507.55
-674.228
-1425.16
-703.843
-1360.51
-711.032
-1290.36
-699.996
-1224.74
-670.018
-1159.35
-621.891
-1095.61
-556.121
-1030.18
-474.762
-955.466
-382.551
-854.799
-288.169
-703.961
-200.347
-477.461
-123.545
-175.576
-73.2302
56.8553
-70.8528
177.141
295.708
-220.395
-1655.37
-482.013
-1395.41
-757.559
-1405.48
-991.399
-1321.33
-1216.1
-1282.86
-1408.3
-1232.96
-1577.75
-1191.06
-1719.5
-1148.6
-1836.38
-1107.86
-1928.27
-1067.47
-1996.4
-1027.48
-2039.71
-986.869
-2052.35
-942.826
-2018.57
-888.578
-1908.98
-813.554
-1678
-708.436
-1283.16
-570.423
-820.064
-406.237
-400.717
-242.206
-105.009
-680.366
-1100.77
-1531.25
-1877.58
-2185.44
-2443.4
-2659.45
-2833.06
-2965.92
-3058.39
-3110.86
-3122.73
-3090.56
-3004.13
-2842.69
-2576.12
-2171.55
-1602.79
-869.991
-680.354
1655.35
-1100.75
1395.4
-1531.22
1405.47
-1877.55
1321.32
-2185.4
1282.85
-2443.34
1232.95
-2659.4
1191.05
-2833
1148.6
-2965.86
1107.86
-3058.33
1067.47
-3110.81
1027.48
-3122.68
986.873
-3090.5
942.825
-3004.07
888.561
-2842.58
813.513
-2575.96
708.385
-2171.36
570.399
-1602.65
406.291
-869.963
242.31
105.037
-220.415
1875.77
-482.06
1657.04
-757.633
1681.04
-991.506
1555.2
-1216.24
1507.58
-1408.48
1425.19
-1577.97
1360.55
-1719.77
1290.4
-1836.7
1224.79
-1928.65
1159.41
-1996.85
1095.68
-2040.23
1030.25
-2052.92
955.518
-2019.15
854.79
-1909.48
703.843
-1678.28
477.182
-1283.07
175.195
-819.923
-56.859
-400.549
-177.064
-295.512
-155.5
2031.27
-325.6
1827.14
-459.157
1814.6
-549.148
1645.19
-628.402
1586.84
-674.5
1471.29
-704.162
1390.21
-711.398
1297.64
-700.409
1213.8
-670.479
1129.48
-622.399
1047.6
-556.679
964.529
-475.374
874.213
-383.22
762.637
-288.885
609.508
-201.055
389.351
-124.183
98.3215
-73.9219
-107.12
-71.3109
-179.676
-366.823
11.0551
2020.21
-4.53793
1842.74
3.86352
1806.2
31.5353
1617.52
59.3408
1559.03
106.643
1423.99
159.588
1337.26
225.978
1231.25
301.971
1137.81
388.121
1043.33
482.977
952.749
584.237
863.269
685.665
772.786
773.111
675.19
821.035
561.584
785.935
424.451
611.246
273.011
360.983
143.142
172.016
9.29151
-194.807
48.0517
1972.16
68.2765
1822.51
105.923
1768.55
146.738
1576.7
185.186
1520.58
233.018
1376.15
277.998
1292.28
329.161
1180.08
379.527
1087.44
432.41
990.45
487.175
897.984
548.858
801.585
624.554
697.09
719.017
580.727
816.966
463.635
868.446
372.971
819.294
322.163
662.8
299.636
392.432
279.659
197.625
1.20497
1970.96
-2.55627
1826.27
-1.239
1767.23
-14.5985
1590.06
-25.9989
1531.98
-45.0025
1395.16
-72.4676
1319.75
-106.953
1214.57
-147.245
1127.73
-182.66
1025.86
-203.726
919.049
-194.676
792.535
-140.77
643.185
-39.3578
479.314
93.1222
331.155
236.846
229.248
362.66
196.349
399.398
262.898
272.813
406.244
470.438
-83.9286
2054.89
-155.934
1898.28
-229.156
1840.46
-323.735
1684.64
-414.74
1622.99
-522.239
1502.66
-639.23
1436.74
-768.761
1344.1
-902.269
1261.24
-1026.32
1149.92
-1129.62
1022.34
-1202.06
864.979
-1241.49
682.619
-1253.68
491.503
-1235.09
312.561
-1157.31
151.467
-991.742
30.7814
-696.972
-31.8721
-306.012
15.2839
164.426
-34.2006
2089.09
-142.376
2006.45
-209.332
1907.41
-280.348
1755.65
-348.315
1690.96
-418.141
1572.48
-487.805
1506.4
-557.268
1413.56
-625.727
1329.7
-689.415
1213.61
-747.251
1080.18
-802.029
919.758
-860.654
741.244
-923.572
554.421
-983.306
372.295
-1030.21
198.368
-1048.04
48.616
-923.431
-156.482
-577.415
-330.733
-412.989
131.744
1957.34
31.5892
2106.61
13.4802
1925.52
16.6268
1752.51
30.0198
1677.56
46.4779
1556.02
74.2102
1478.67
107.529
1380.24
145.263
1291.97
176.706
1182.16
196.936
1059.95
197.042
919.652
171.188
767.098
120.614
604.995
55.0918
437.817
-5.88477
259.344
-8.3136
51.0442
-38.5679
-126.228
-98.9328
-270.368
-511.922
239.325
1718.02
206.308
2139.63
214.381
1917.45
260.864
1706.03
327.73
1610.7
393.105
1490.65
470.932
1400.84
552.637
1298.54
640.819
1203.78
722.431
1100.55
790.92
991.46
836.416
874.155
852.411
751.103
833.718
623.687
777.504
494.031
677.111
359.737
506.807
221.349
315.891
64.6869
157.481
-111.957
-354.441
221.46
1496.56
247.941
2113.15
262.156
1903.23
307.694
1660.49
376.265
1542.13
442.026
1424.89
513.178
1329.69
584.066
1227.65
657.053
1130.8
724.543
1033.06
780.571
935.431
817.504
837.223
829.668
738.939
812.785
640.57
764.454
542.362
682.027
442.163
562.726
340.649
401.56
225.853
200.57
89.0327
-153.871
140.464
1356.09
193.464
2060.15
223.798
1872.9
267.213
1617.07
329.773
1479.57
392.064
1362.6
455.199
1266.56
514.636
1168.21
571.064
1074.37
621.22
982.906
662.706
893.945
693.318
806.611
712.174
720.083
718.01
634.734
706.77
553.602
667.356
481.577
583.421
424.584
436.422
372.852
223.816
301.639
69.9444
44.5129
1311.58
99.7347
2004.92
159.523
1813.11
221.561
1555.03
295.179
1405.95
370.937
1286.84
447.567
1189.93
524.353
1091.43
602.36
996.365
682.943
902.323
767.492
809.396
855.779
718.325
944.374
631.488
1019.8
559.312
1058.74
514.66
1028.31
512.002
901.813
551.084
668.245
606.42
358.042
611.843
427.986
-66.8624
1378.44
4.38975
1933.67
93.879
1723.62
148.728
1500.19
189.541
1365.13
225.686
1250.7
270.76
1144.85
333.893
1028.29
422.768
907.49
543.651
781.441
697.74
655.307
877.554
538.511
1060.95
448.093
1209.77
410.487
1276.97
447.462
1220.69
568.285
1023.98
747.789
707.794
922.611
341.285
978.352
769.27
-222.053
1600.5
-253.962
1965.58
-251.948
1721.61
-322.179
1570.42
-439.115
1482.07
-567.375
1378.96
-680.778
1258.26
-770.216
1117.73
-830.912
968.186
-860.62
811.149
-858.497
653.184
-824.144
504.158
-758.768
382.716
-660.229
311.948
-524.033
311.267
-347.849
392.101
-156.622
556.562
-12.2749
778.264
22.0045
944.073
791.275
-52.4482
1652.94
-216.124
2129.26
-415.637
1921.12
-607.249
1762.03
-809.091
1683.91
-1023.87
1593.74
-1240.89
1475.27
-1454.68
1331.53
-1665.25
1178.75
-1873.68
1019.58
-2076.94
856.442
-2262.67
689.892
-2405.8
525.845
-2465.76
371.907
-2392.24
237.745
-2145.91
145.777
-1715.79
126.439
-1116.76
179.235
-454.547
281.856
336.728
474.781
1178.16
627.764
1976.27
456.419
2092.47
231.75
1986.7
49.3159
1866.35
-107.512
1750.56
-259.464
1627.23
-415.535
1487.6
-575.709
1338.92
-739.463
1183.33
-905.923
1022.9
-1072.78
856.746
-1233.8
686.867
-1376.84
514.945
-1482.63
343.542
-1522.01
185.15
-1451.16
55.5924
-1201.97
-69.9573
-675.031
-245.081
-338.303
839.884
338.279
1328.13
1488.03
1319.64
2100.96
1169.25
2137.09
1060.08
1975.51
1000.76
1809.88
958.567
1669.42
910.928
1535.24
851.871
1397.98
779.768
1255.44
693.65
1109.02
590.976
959.421
470.152
807.691
331.157
653.94
176.661
498.038
24.8148
336.996
-87.1528
167.56
-90.7244
-66.386
-115.489
-220.316
-453.792
244.283
93.9958
339.495
1392.82
318.26
2122.19
316.685
2138.67
356.119
1936.08
430.177
1735.83
523.739
1575.86
618.296
1440.68
703.818
1312.46
774.103
1185.15
825.828
1057.29
856.137
929.112
862.317
801.511
841.634
674.622
791.105
548.567
707.842
420.259
586.803
288.598
384.159
136.258
201.36
-37.5171
-252.432
-561.786
-505.293
-239.278
51.7721
306.431
526.642
685.745
833.551
953.901
1045.47
1107.23
1139.01
1140.4
1110.22
1046.76
946.286
804.503
606.853
336.862
)
;

boundaryField
{
    outletWall
    {
        type            calculated;
        value           nonuniform List<scalar> 
60
(
10926.5
4223.82
-2205.4
-8292.84
-15783.8
-21591.6
-24173.5
-22120.1
-14245.6
1321.61
13265.5
14674.9
12687.3
10634.4
8608.33
6142.06
4959.34
6467.91
7913.93
5506.85
10113.3
9322.7
7915.02
6645.38
5532.62
4441.31
3266.37
1930.67
442.904
-974.449
-2032.09
-2760.29
-3320.21
-3673.28
-3684.52
-3129.61
-1827.14
585.471
3149.09
3794.89
3794.22
-3017.8
-4566.91
-3095.82
2241.32
7308.72
8759.4
6492.65
-5666.37
-12872.1
-15195.7
-15229.7
-12266.9
2431.25
13036
13299.6
9874.18
5731.21
2974.56
310.638
)
;
    }
    fineWalls
    {
        type            calculated;
        value           uniform 0;
    }
    fineFrontAndBack
    {
        type            calculated;
        value           nonuniform List<scalar> 
960
(
1.11878e-13
-2.15255e-12
-1.86118e-13
-6.59195e-13
-7.41542e-12
-1.52963e-12
-1.76591e-12
7.41982e-13
-1.32975e-11
-2.92204e-12
-5.05526e-12
-3.62018e-11
-1.00609e-11
-1.05843e-11
-4.00052e-11
-2.94716e-12
-4.83196e-13
2.87304e-13
1.48148e-13
-2.91146e-14
4.05604e-14
1.42628e-13
8.06588e-14
5.60374e-14
2.44788e-14
-4.06444e-14
-4.4937e-12
-1.50132e-13
-2.55521e-13
-3.65958e-13
-4.80199e-13
-5.93118e-13
-6.9239e-13
-7.7629e-13
-8.45323e-13
-8.80013e-13
-8.2074e-13
-6.74233e-13
-3.15235e-13
-1.44771e-13
1.26328e-11
3.88704e-12
4.1971e-12
3.97036e-12
2.65172e-11
4.56801e-12
5.94157e-12
8.62611e-12
2.77195e-10
7.40915e-11
6.92172e-11
7.76847e-11
-4.07464e-12
-2.54022e-12
-3.28051e-12
-2.52413e-11
-5.30425e-12
-5.30648e-12
-4.75654e-12
-1.72549e-11
-5.82557e-15
1.64661e-13
5.02074e-13
6.46249e-13
7.2106e-13
7.11317e-13
6.68025e-13
5.96739e-13
5.07509e-13
4.16329e-13
3.26123e-13
2.36401e-13
1.57806e-13
6.41587e-12
1.66304e-13
1.56562e-13
1.89023e-13
2.22856e-13
2.5489e-13
4.21557e-13
3.17479e-12
3.47714e-12
2.36893e-11
4.21172e-12
5.14362e-12
3.34522e-11
7.02808e-12
6.932e-12
2.96238e-11
4.79204e-12
1.45538e-12
2.43326e-11
6.77931e-12
6.62067e-12
6.39482e-12
2.98879e-11
5.83815e-12
6.99926e-12
4.05023e-11
7.76933e-12
1.84302e-11
3.15208e-11
6.92353e-11
7.49193e-11
6.9161e-11
5.8536e-11
4.03124e-11
2.19073e-11
1.05246e-11
6.74231e-12
5.91299e-12
4.82712e-12
5.20823e-12
2.136e-11
4.03309e-11
4.65186e-11
3.91729e-11
2.97055e-11
9.37817e-12
-2.55108e-11
-1.01236e-11
5.33293e-11
7.64634e-11
5.82096e-11
3.9149e-11
1.73475e-11
5.06886e-12
3.39268e-12
5.69397e-12
6.41123e-12
5.05097e-12
4.88098e-12
2.02331e-11
3.91593e-11
4.645e-11
4.08472e-11
3.38207e-11
1.92402e-11
-2.80063e-11
-2.50527e-11
3.36653e-11
7.52268e-11
4.67586e-11
2.55734e-11
8.36953e-12
2.91071e-12
3.82404e-12
5.24401e-12
5.50728e-12
4.94065e-12
4.32815e-12
1.88984e-11
3.78966e-11
4.62886e-11
4.2529e-11
3.66102e-11
2.7655e-11
-1.55179e-11
-2.52834e-11
1.73339e-11
7.11781e-11
3.53264e-11
1.29126e-11
1.17133e-13
-1.57396e-12
-2.01536e-13
1.21576e-12
3.35803e-12
5.07392e-12
4.34825e-12
1.75428e-11
3.64274e-11
4.58621e-11
4.37994e-11
3.89989e-11
2.86933e-11
-7.38762e-12
-2.60994e-11
7.81708e-12
7.0025e-11
2.87294e-11
3.00888e-12
-7.17296e-12
-7.93224e-12
-7.56093e-12
-5.90191e-12
-5.31105e-13
5.5782e-12
5.31666e-12
1.57691e-11
3.45775e-11
4.50144e-11
4.44385e-11
4.07797e-11
3.23812e-11
-9.79552e-12
-3.80158e-11
-7.57507e-12
7.57027e-11
3.14961e-11
-3.26179e-12
-1.65879e-11
-1.90504e-11
-2.01231e-11
-1.75656e-11
-7.42012e-12
5.48395e-12
6.97177e-12
1.35606e-11
3.26553e-11
4.38084e-11
4.36167e-11
4.0388e-11
3.89235e-11
-3.82396e-11
-6.21555e-11
-3.44094e-11
7.70061e-11
4.18281e-11
-4.28797e-12
-2.86382e-11
-3.47437e-11
-3.63602e-11
-3.19194e-11
-1.61298e-11
5.19444e-12
9.80289e-12
1.2227e-11
3.02685e-11
4.27494e-11
4.39685e-11
4.11924e-11
3.25291e-11
-9.10472e-11
-9.26759e-11
-6.19619e-11
6.58051e-11
5.54542e-11
1.35761e-13
-3.95951e-11
-5.08167e-11
-5.10007e-11
-4.37492e-11
-2.28071e-11
5.99071e-12
1.43711e-11
1.3163e-11
2.88776e-11
3.92432e-11
1.04615e-11
-9.92679e-12
-1.6962e-11
-1.17206e-10
-1.03736e-10
-8.13724e-11
4.24875e-11
6.78938e-11
9.54677e-12
-4.4929e-11
-6.12222e-11
-5.89426e-11
-4.92956e-11
-2.45252e-11
9.55828e-12
2.051e-11
1.89783e-11
2.62961e-11
4.68789e-12
-4.15843e-11
-4.80448e-11
-4.64347e-11
-7.7005e-11
-8.1015e-11
-9.19766e-11
1.45625e-11
7.4244e-11
2.79865e-11
-3.33192e-11
-6.40165e-11
-6.00959e-11
-5.03382e-11
-2.32971e-11
1.38076e-11
1.8206e-11
1.25005e-11
2.52764e-12
-2.49073e-11
-5.00292e-11
-3.73163e-11
-7.52095e-13
-2.62879e-11
-7.27074e-11
-9.15303e-11
-9.83272e-12
7.05222e-11
4.07942e-11
-3.75463e-11
-5.80822e-11
-5.70157e-11
-5.02554e-11
-2.45373e-11
1.17687e-11
1.53246e-11
2.14359e-12
-1.29524e-11
-3.12612e-11
-2.66721e-11
3.8824e-11
1.82209e-10
-1.38146e-11
-6.34822e-11
-8.18017e-11
-2.64973e-11
5.71476e-11
5.46805e-11
-1.97108e-11
-4.97281e-11
-5.17673e-11
-5.02394e-11
-2.69738e-11
1.13084e-11
1.8075e-11
6.01129e-12
-4.6338e-12
-4.57873e-12
1.42359e-11
2.92577e-11
2.98482e-11
-9.18003e-14
-4.76375e-11
-6.74549e-11
-3.37819e-11
4.00937e-11
6.37066e-11
2.68113e-12
-3.8799e-11
-4.69289e-11
-5.01314e-11
-3.02049e-11
8.63806e-12
1.8608e-11
1.40154e-11
9.95147e-12
1.19954e-11
1.55873e-11
6.74551e-12
9.99196e-12
1.59099e-11
-2.63283e-11
-4.90459e-11
-3.08623e-11
2.67336e-11
6.57875e-11
2.23685e-11
-2.83717e-11
-4.45644e-11
-4.94479e-11
-3.5132e-11
2.97222e-12
1.37706e-11
1.35513e-11
1.35551e-11
1.05952e-11
-1.4141e-12
-2.30103e-11
-2.6236e-11
3.22601e-11
1.33325e-13
-2.44102e-11
-1.75829e-11
2.22901e-11
6.35869e-11
3.74998e-11
-2.12801e-11
-4.52054e-11
-4.73497e-11
-4.14679e-11
-7.61182e-12
7.84061e-12
8.50684e-12
8.98901e-12
3.59382e-12
-1.13334e-11
-1.90686e-11
-1.64759e-11
4.51102e-11
2.75715e-11
5.17054e-12
4.28137e-12
2.82023e-11
6.20707e-11
4.69742e-11
-1.93094e-11
-4.68234e-11
-4.45677e-11
-4.58996e-11
-2.6164e-11
-7.53243e-13
4.2841e-12
4.50614e-12
6.81073e-13
-1.02112e-11
-2.35677e-11
-8.32447e-12
5.08151e-11
4.88156e-11
3.36865e-11
3.02066e-11
4.24242e-11
6.49526e-11
5.13281e-11
-2.35173e-11
-4.61581e-11
-4.29385e-11
-4.67169e-11
-4.31371e-11
-1.8227e-11
-5.54246e-12
-2.3205e-12
-3.76503e-12
-1.82039e-11
-2.63325e-11
-9.68349e-12
4.9393e-11
5.87063e-11
5.32999e-11
5.24964e-11
5.89521e-11
7.09073e-11
4.97258e-11
-3.19394e-11
-4.30617e-11
-4.26582e-11
-4.62359e-11
-4.71321e-11
-3.6335e-11
-2.44709e-11
-1.81655e-11
-1.82235e-11
-2.69551e-11
-2.50783e-11
-1.86607e-11
4.35066e-11
6.04259e-11
6.34121e-11
6.84244e-11
7.41695e-11
7.64464e-11
4.05846e-11
-3.65306e-11
-4.06921e-11
-4.26212e-11
-4.59004e-11
-4.72177e-11
-4.47595e-11
-3.82985e-11
-3.2606e-11
-3.10621e-11
-3.06113e-11
-2.17586e-11
-1.55962e-11
2.5052e-11
4.57772e-11
5.36668e-11
6.29078e-11
6.64408e-11
5.59397e-11
1.16943e-11
-3.40934e-11
-4.0251e-11
-4.24186e-11
-4.57379e-11
-4.72208e-11
-4.60538e-11
-4.25758e-11
-3.76964e-11
-3.38847e-11
-2.82788e-11
-1.76271e-11
-1.17982e-11
-1.11878e-13
2.15255e-12
1.86118e-13
6.59195e-13
7.41542e-12
1.52963e-12
1.76591e-12
-7.41982e-13
1.32975e-11
2.92204e-12
5.05526e-12
3.62018e-11
1.00609e-11
1.05843e-11
4.00052e-11
2.94716e-12
4.83196e-13
-2.87304e-13
-1.48148e-13
2.91146e-14
-4.05604e-14
-1.42628e-13
-8.06588e-14
-5.60374e-14
-2.44788e-14
4.06444e-14
4.4937e-12
1.50132e-13
2.55521e-13
3.65958e-13
4.80199e-13
5.93118e-13
6.9239e-13
7.7629e-13
8.45323e-13
8.80013e-13
8.2074e-13
6.74233e-13
3.15235e-13
1.44771e-13
-1.26328e-11
-3.88704e-12
-4.1971e-12
-3.97036e-12
-2.65172e-11
-4.56801e-12
-5.94157e-12
-8.62611e-12
-2.77195e-10
-7.40915e-11
-6.92172e-11
-7.76847e-11
4.07464e-12
2.54022e-12
3.28051e-12
2.52413e-11
5.30425e-12
5.30648e-12
4.75654e-12
1.72549e-11
5.82557e-15
-1.64661e-13
-5.02074e-13
-6.46249e-13
-7.2106e-13
-7.11317e-13
-6.68025e-13
-5.96739e-13
-5.07509e-13
-4.16329e-13
-3.26123e-13
-2.36401e-13
-1.57806e-13
-6.41587e-12
-1.66304e-13
-1.56562e-13
-1.89023e-13
-2.22856e-13
-2.5489e-13
-4.21557e-13
-3.17479e-12
-3.47714e-12
-2.36893e-11
-4.21172e-12
-5.14362e-12
-3.34522e-11
-7.02808e-12
-6.932e-12
-2.96238e-11
-4.79204e-12
-1.45538e-12
-2.43326e-11
-6.77931e-12
-6.62067e-12
-6.39482e-12
-2.98879e-11
-5.83815e-12
-6.99926e-12
-4.05023e-11
-7.76933e-12
-1.84302e-11
-3.15208e-11
-6.92353e-11
-7.49193e-11
-6.9161e-11
-5.8536e-11
-4.03124e-11
-2.19073e-11
-1.05246e-11
-6.74231e-12
-5.91299e-12
-4.82712e-12
-5.20823e-12
-2.136e-11
-4.03309e-11
-4.65186e-11
-3.91729e-11
-2.97055e-11
-9.37817e-12
2.55108e-11
1.01236e-11
-5.33293e-11
-7.64634e-11
-5.82096e-11
-3.9149e-11
-1.73475e-11
-5.06886e-12
-3.39268e-12
-5.69397e-12
-6.41123e-12
-5.05097e-12
-4.88098e-12
-2.02331e-11
-3.91593e-11
-4.645e-11
-4.08472e-11
-3.38207e-11
-1.92402e-11
2.80063e-11
2.50527e-11
-3.36653e-11
-7.52268e-11
-4.67586e-11
-2.55734e-11
-8.36953e-12
-2.91071e-12
-3.82404e-12
-5.24401e-12
-5.50728e-12
-4.94065e-12
-4.32815e-12
-1.88984e-11
-3.78966e-11
-4.62886e-11
-4.2529e-11
-3.66102e-11
-2.7655e-11
1.55179e-11
2.52834e-11
-1.73339e-11
-7.11781e-11
-3.53264e-11
-1.29126e-11
-1.17133e-13
1.57396e-12
2.01536e-13
-1.21576e-12
-3.35803e-12
-5.07392e-12
-4.34825e-12
-1.75428e-11
-3.64274e-11
-4.58621e-11
-4.37994e-11
-3.89989e-11
-2.86933e-11
7.38762e-12
2.60994e-11
-7.81708e-12
-7.0025e-11
-2.87294e-11
-3.00888e-12
7.17296e-12
7.93224e-12
7.56093e-12
5.90191e-12
5.31105e-13
-5.5782e-12
-5.31666e-12
-1.57691e-11
-3.45775e-11
-4.50144e-11
-4.44385e-11
-4.07797e-11
-3.23812e-11
9.79552e-12
3.80158e-11
7.57507e-12
-7.57027e-11
-3.14961e-11
3.26179e-12