/*--------------------------------*- C++ -*----------------------------------*\
| =========                 |                                                 |
| \\      /  F ield         | OpenFOAM: The Open Source CFD Toolbox           |
|  \\    /   O peration     | Version:  4.1                                   |
|   \\  /    A nd           | Web:      www.OpenFOAM.org                      |
|    \\/     M anipulation  |                                                 |
\*---------------------------------------------------------------------------*/
FoamFile
{
    version     2.0;
    format      ascii;
    class       volScalarField;
    location    "15";
    object      p;
}
// * * * * * * * * * * * * * * * * * * * * * * * * * * * * * * * * * * * * * //

dimensions      [0 2 -2 0 0 0 0];

internalField   nonuniform List<scalar> 
1280
(
-3.35312
-0.699085
-1.01601
-1.74723
-1.3766
-1.45454
-1.80476
-1.8642
-1.69029
-1.84581
-2.3904
-1.93181
-2.16141
-2.90327
-2.38797
-2.55538
-3.4807
-2.43743
-2.55874
-5.51128
-2.9734
2.859
8.74264
10.7993
12.5169
16.8669
10.1633
34.7893
36.795
39.2845
41.7071
44.0476
46.4456
48.7849
51.1943
53.3715
55.9537
57.6178
62.0606
60.5584
17.8834
21.062
20.7826
21.1908
19.8935
19.7349
19.7178
19.5766
19.4163
16.8989
16.0518
18.8785
6.85104
-0.316275
-3.07624
5.47734
-25.8716
-32.9858
-50.3235
-80.5286
-28.9307
-24.6444
-26.4924
-24.8933
-23.1
-19.843
-16.7887
-13.7122
-10.9529
-8.32836
-6.02008
-3.78493
-2.00582
-13.5837
26.5971
23.9133
24.3632
18.9184
-2.03424
-18.6149
-21.1412
-13.7111
-8.60777
-9.21601
-5.77529
-3.82307
-4.92046
-2.82236
-2.11198
-3.0136
-1.7123
-1.38581
-2.10768
-2.25035
-1.38086
-1.10815
-2.888
-1.00871
0.385018
-8.56502
30362.6
-5011.69
-7179.72
-97.445
-740.955
-94.8261
-62.3211
-3.27063
-3.5843
1.74388
7.12724
4.41218
3.00583
2.25705
0.74318
0.630096
0.641372
0.106217
-1.04615
-19946.2
-610.174
-3704.28
-269.953
-239.549
-72.0011
-90.6298
-26.3481
-4.6356
2.025
1.84704
0.732565
-0.406028
-1.81725
-1.06429
-0.373416
0.144759
0.270274
-0.0983769
48.8176
-3302.39
295.049
-128.3
-117.775
-112.71
-123.347
-49.0663
-15.4804
3.86599
7.76225
5.11324
0.331646
-1.28261
-0.648782
0.223233
0.546196
0.5409
0.598318
-5155.29
-3807.04
-947.747
126.689
-160.017
-156.146
-182.093
-97.1095
-32.0938
4.39418
10.5955
5.45519
-1.75123
-3.95798
-2.49059
-0.301413
0.588852
0.618614
0.487833
-1268.98
-2142.27
-311.161
16.1456
-162.013
-203.511
-239.055
-148.915
-55.2348
3.19737
15.2007
6.73132
-3.9822
-6.76623
-4.27125
-0.356924
0.966413
0.939935
0.610715
-1598.43
-1951.96
42.2925
-78.1652
-152.727
-254.196
-295.692
-201.089
-80.3278
0.751153
20.862
6.99711
-8.43474
-12.0113
-8.04072
-1.06805
1.48864
1.43229
0.412415
-403.133
-1386.75
246.079
-97.6328
-141.74
-275.337
-311.889
-227.081
-92.9581
2.10569
30.168
9.88186
-11.3104
-16.0948
-13.0021
-2.56879
1.84409
2.17082
-1.69094
-47.1969
-892.056
489.978
-99.9313
-131.97
-271.543
-319.93
-228.884
-88.7646
13.26
49.2693
20.7827
-9.54324
-16.7832
-15.0964
-3.38884
2.52926
3.49628
6.04639
335.812
-574.1
769.17
-72.5816
-117.279
-263.577
-323.018
-215.205
-72.2805
34.1119
78.4151
43.1544
-0.604938
-16.43
-15.5123
-4.77366
3.27695
3.81891
33.3765
470.502
-353.379
1041.08
44.9539
-86.4065
-238.381
-304.45
-194.504
-52.0725
56.6401
107.322
69.3912
14.8336
-9.83261
-13.6441
-4.34476
4.6837
6.93791
32.3108
502.77
-284.297
1134.97
122.426
-56.2628
-218.833
-302.338
-197.956
-45.8749
67.5136
120.415
80.6659
27.2049
3.1827
-6.81918
-5.06281
1.33469
9.96251
22.607
424.829
-426.556
1012.16
32.3221
-96.297
-263.296
-340.312
-228.499
-54.3776
66.6895
120.173
74.8203
25.9144
11.6292
0.805201
-3.38146
6.49166
28.3993
34.3982
91.1259
-711.492
724.685
-50.1169
-112.688
-286.531
-369.607
-277.733
-83.3088
44.7637
101.575
53.6871
18.9237
23.3346
12.4061
-1.20979
1.13625
11.6489
10.7279
-226.277
-1120.03
448.376
-66.9386
-119.499
-282.658
-371.144
-300.831
-110.309
15.7379
74.4473
31.825
12.1568
28.4951
17.278
-6.446
-11.2385
-7.36161
-5.60035
-1343.5
-1778.1
171.097
-54.1405
-123.248
-277.934
-371.045
-298.349
-133.733
-15.8535
45.661
12.2308
5.97438
29.0028
18.9495
-6.09992
-6.42357
-1.16691
1.42337
-1135.06
-1962.71
-148.863
45.5718
-135.921
-250.441
-350.065
-254.299
-125.448
-19.0352
33.0866
-0.965655
-0.189953
21.972
14.1243
-9.54485
-9.07717
-3.4339
-1.43249
-4560.9
-3069.93
-814.2
104.785
-134.007
-216.419
-308.697
-227.306
-139.966
-52.4399
2.23231
-18.4709
-4.98223
11.8308
7.88344
-8.73726
-8.72307
-3.19635
-0.413054
282.208
-2921.14
183.899
-224.892
-103.364
-157.02
-221.388
-124.596
-50.4983
19.5326
34.7424
-12.588
-5.61046
4.81426
4.46731
-4.5698
-6.05737
-2.13029
-0.667751
-18655.1
-1049.06
-3384.33
-317.852
-274.621
-120.872
-232.942
-174.147
-157.359
-118.185
-53.2684
-32.9391
-16.0643
-1.62587
-0.877754
-2.06246
-2.66414
-1.47266
-1.02942
29790.5
-5145.79
-7011.88
-171.496
-797.857
-155.944
-101.996
13.4245
121.666
203.202
135.663
27.7057
-13.1574
-0.33827
11.1567
2.16358
-0.770259
-1.85102
-1.67983
77.3659
76.4405
75.736
74.7905
73.7052
72.4324
71.0875
70.263
69.7705
69.2884
68.9688
68.7586
68.6727
68.6887
68.8312
69.062
69.4175
69.8641
70.4297
71.1155
66.5227
66.7999
66.8929
67.0105
67.123
67.1659
67.1997
67.1634
67.1301
67.0778
67.0178
66.944
66.879
66.8001
66.7437
66.6673
66.6331
66.5638
66.5311
66.4925
71.1553
70.9577
70.8834
70.7356
70.6281
70.4991
70.3883
70.2739
70.1728
70.0678
69.9778
69.8831
69.8043
69.7178
69.652
69.5691
69.5183
69.4267
69.4093
69.2827
70.2705
70.2357
70.2216
70.1863
70.1709
70.1323
70.1075
70.0663
70.0338
69.9901
69.9529
69.9064
69.8684
69.819
69.7844
69.7313
69.7048
69.6463
69.6337
69.5661
71.5384
71.4512
71.4254
71.3579
71.3207
71.2621
71.2198
71.1657
71.1211
71.069
71.024
70.9721
70.9283
70.8747
70.8344
70.7764
70.7429
70.6766
70.6558
70.5713
71.9306
71.8687
71.8529
71.8033
71.779
71.7349
71.7054
71.6643
71.6317
71.592
71.5582
71.5182
71.4849
71.4429
71.4126
71.3661
71.342
71.2873
71.2745
71.205
72.6607
72.5926
72.5744
72.5214
72.4942
72.448
72.4162
72.374
72.3398
72.2995
72.2645
72.2247
72.1906
72.1493
72.1183
72.073
72.0483
71.995
71.9819
71.9139
73.223
73.1614
73.1453
73.0969
73.0725
73.0303
73.0014
72.9628
72.9315
72.8948
72.8625
72.8263
72.7947
72.7572
72.7284
72.687
72.6642
72.6149
72.6033
72.5402
73.8229
73.7625
73.7462
73.6989
73.6747
73.6335
73.605
73.5675
73.5367
73.5013
73.4695
73.4349
73.4036
73.368
73.3394
73.3001
73.2774
73.2305
73.2189
73.1583
74.376
74.3187
74.3032
74.2582
74.2351
74.196
74.1688
74.1333
74.1037
74.0703
74.0397
74.0071
73.9768
73.9435
73.9156
73.8789
73.8567
73.8125
73.801
73.7434
74.9168
74.8618
74.8466
74.8034
74.7809
74.7434
74.7171
74.683
74.6544
74.6225
74.5927
74.5619
74.5321
74.5009
74.4732
74.4389
74.4166
74.3751
74.3634
74.3084
75.4313
75.379
75.3642
75.323
75.3014
75.2656
75.2403
75.2078
75.1802
75.1499
75.1211
75.0921
75.0631
75.034
75.0066
74.9748
74.9525
74.9137
74.9018
74.8496
75.9251
75.8753
75.8608
75.8216
75.8006
75.7664
75.742
75.711
75.6845
75.6557
75.6278
75.6005
75.5721
75.5451
75.5179
75.4887
75.4661
75.4303
75.418
75.3685
76.3978
76.3507
76.3364
76.299
76.2787
76.246
76.2226
76.1929
76.1674
76.1398
76.1129
76.087
76.0594
76.0342
76.0071
75.9806
75.9575
75.9247
75.9117
75.8651
76.849
76.8051
76.7912
76.7561
76.7368
76.7058
76.6836
76.6555
76.6312
76.6052
76.5794
76.5549
76.5281
76.5048
76.4777
76.4539
76.4298
76.4005
76.3862
76.3427
77.2679
77.2274
77.214
77.1813
77.1639
77.1348
77.1145
77.0888
77.0662
77.0425
77.0189
76.9964
76.9717
76.9507
76.9246
76.9045
76.8797
76.8547
76.8392
76.7997
77.6628
77.6255
77.6109
77.5786
77.5624
77.534
77.5139
77.4896
77.4676
77.445
77.4227
77.4013
77.3786
77.3593
77.3348
77.3189
77.2933
77.2751
77.2593
77.2251
78.0623
78.035
78.0237
77.9913
77.9783
77.9528
77.9331
77.9105
77.8883
77.8654
77.8419
77.8181
77.793
77.7691
77.7409
77.7207
77.6866
77.6715
77.6453
77.6077
78.3364
78.3273
78.3424
78.3218
78.322
78.3146
78.31
78.3047
78.2991
78.2927
78.285
78.2755
78.2635
78.2488
78.2285
78.2075
78.169
78.1477
78.0757
78.0188
78.3018
78.2435
78.2816
78.2923
78.3098
78.3276
78.3464
78.3671
78.3898
78.4149
78.4427
78.4738
78.5085
78.5473
78.5908
78.6399
78.6926
78.7612
78.8025
78.9657
744.44
661.684
612.437
556.182
507.171
459.947
416.091
374.737
335.885
299.249
264.65
231.884
200.736
171.112
142.999
115.568
89.0447
67.7889
43.9315
8.07682
53.1808
30.9712
39.0223
28.0909
25.3291
18.7458
13.8078
8.56148
3.98963
-0.116229
-3.52954
-6.18843
-7.98456
-8.83619
-8.59583
-7.27165
-5.04204
-1.76256
1.9257
4.8754
45.7501
39.8478
48.7161
42.5932
45.4874
43.0266
42.7202
41.1544
39.9269
38.4494
37.0488
35.6933
34.4873
33.447
32.6221
32.102
31.8338
32.1837
33.2877
35.0111
63.8628
60.1052
62.9857
57.0173
58.2067
54.5322
53.7122
51.5873
50.3126
48.924
47.8851
47.0432
46.4799
46.1469
45.9777
45.8821
45.7677
45.5722
45.0666
43.7918
35.2281
30.9117
32.5197
28.0339
29.3678
26.4658
26.5759
25.0849
24.6422
23.8226
23.3339
22.804
22.3408
21.7905
21.1414
20.1826
18.688
16.9254
13.5995
11.5113
2.70974
-1.4696
-0.578171
-4.59708
-4.19246
-7.65229
-8.48296
-11.3234
-13.2303
-15.9847
-18.5908
-21.4127
-24.0352
-26.3924
-28.3404
-30.0056
-31.284
-31.825
-32.3689
-30.5267
-12.6968
-15.1292
-13.4485
-16.2306
-14.7783
-17.1552
-16.7191
-18.2343
-18.5899
-19.5248
-20.0634
-20.4561
-20.3476
-19.6102
-18.2958
-16.4378
-14.3472
-11.8728
-10.0686
-6.52238
6.83333
7.16348
9.83233
9.13262
12.071
11.9976
14.2342
15.1753
16.9503
18.4951
20.2508
22.0826
24.012
26.0604
28.1592
30.3772
32.5557
35.0072
37.0122
40.1655
33.4938
35.3024
37.7978
38.0776
40.9043
41.5791
43.7682
45.0945
46.8228
48.3931
49.9787
51.5509
53.1009
54.6599
56.2108
57.8222
59.3871
61.1191
62.4552
64.2627
58.7372
60.6495
62.4778
62.865
64.9652
65.4966
67.0791
68.0103
69.2024
70.2865
71.3958
72.5417
73.726
74.9473
76.1811
77.4244
78.6223
79.9191
80.892
82.1429
74.6933
76.9338
78.512
79.5013
81.5502
82.6059
84.5408
85.9399
87.559
88.8106
89.7746
90.1811
89.9085
88.8742
87.2999
85.6385
84.7758
84.747
85.3394
85.3113
97.055
97.5579
98.0363
97.7808
98.2941
97.7148
97.5543
96.3986
95.0575
92.9236
90.3044
87.0699
83.3916
79.4501
75.6733
72.5232
70.31
69.1216
69.115
67.0375
76.4657
72.1779
70.3556
67.2986
65.4875
62.6691
60.5418
57.9446
55.7348
53.3919
51.2383
49.0544
46.9361
44.8381
42.9038
41.2474
40.2213
40.4662
40.1202
35.8194
24.6618
17.9694
14.5748
9.85912
5.74331
0.817221
-3.84899
-8.9967
-13.8514
-18.6461
-22.9694
-26.8281
-29.9693
-32.2719
-33.5487
-33.8664
-33.4024
-32.7938
-33.0942
-32.6887
-15.9781
-20.1328
-22.8081
-25.8671
-28.2911
-31.0749
-33.3535
-35.6224
-37.2468
-38.3621
-38.7573
-38.522
-37.6686
-36.2914
-34.5487
-32.5634
-30.6633
-28.6238
-26.9308
-23.5159
-16.6248
-16.2172
-13.9157
-11.965
-10.0791
-8.4747
-6.65
-4.88326
-2.99173
-1.08394
0.847551
2.76357
4.62728
6.44529
8.17216
9.93035
11.614
13.734
15.7197
18.7376
0.136924
2.89642
6.95424
10.81
14.1512
16.9864
19.6895
22.1199
24.4067
26.4952
28.4049
30.1529
31.7471
33.2378
34.6169
35.9808
37.2211
38.5797
39.5717
41.0229
36.1893
38.6539
40.1086
41.7495
43.0344
44.1294
45.1937
46.0856
46.9266
47.675
48.3664
49.024
49.6587
50.3095
50.9619
51.691
52.3971
53.2857
53.9481
54.9874
49.435
52.0887
51.7952
52.6885
53.2246
53.9772
54.7013
55.3385
55.9683
56.5201
57.0607
57.5906
58.1203
58.6739
59.2464
59.8951
60.5464
61.3676
61.9417
62.8152
97.9957
98.446
96.9461
96.2402
94.2435
92.365
90.183
87.8428
85.1658
82.7146
80.4479
78.3676
76.5327
74.9398
73.6092
72.4647
71.5354
70.6146
69.9989
68.6986
)
;

boundaryField
{
    outletWall
    {
        type            fixedValue;
        value           uniform 0;
    }
    fineWalls
    {
        type            zeroGradient;
    }
    fineFrontAndBack
    {
        type            zeroGradient;
    }
    fineplugLeft
    {
        type            cyclicAMI;
        value           nonuniform List<scalar> 
20
(
69.0041
68.7559
67.4148
66.7247
65.9239
65.3038
64.708
64.2273
63.8164
63.5165
63.2876
63.1754
63.1683
64.1599
61.3193
61.4675
61.9923
62.3374
61.7242
61.2981
)
;
    }
    fineplugRight
    {
        type            cyclicAMI;
        value           nonuniform List<scalar> 
20
(
49.1727
51.0702
51.1932
52.2496
53.3517
54.9188
56.5941
58.4838
60.5035
62.6926
64.9676
67.3756
69.8731
78.3839
79.2114
80.1774
81.8648
81.3405
78.3499
74.6735
)
;
    }
    inletOutletLeft
    {
        type            cyclicAMI;
        value           nonuniform List<scalar> 
20
(
69.0041
68.7559
67.4148
66.7247
65.9239
65.3038
64.708
64.2273
63.8164
63.5165
63.2876
63.1754
63.1683
64.1599
61.3193
61.4675
61.9923
62.3374
61.7242
61.2981
)
;
    }
    inletLeft
    {
        type            zeroGradient;
    }
    inletWallsLeft
    {
        type            zeroGradient;
    }
    inletFacesLeft
    {
        type            zeroGradient;
    }
    inletOutletRight
    {
        type            cyclicAMI;
        value           nonuniform List<scalar> 
20
(
49.1727
51.0702
51.1932
52.2496
53.3517
54.9188
56.5941
58.4838
60.5035
62.6926
64.9676
67.3756
69.8731
78.3839
79.2114
80.1774
81.8648
81.3405
78.3499
74.6735
)
;
    }
    inletRight
    {
        type            zeroGradient;
    }
    inletWallsRight
    {
        type            zeroGradient;
    }
    inletFacesRight
    {
        type            zeroGradient;
    }
}


// ************************************************************************* //
