/*--------------------------------*- C++ -*----------------------------------*\
| =========                 |                                                 |
| \\      /  F ield         | OpenFOAM: The Open Source CFD Toolbox           |
|  \\    /   O peration     | Version:  4.1                                   |
|   \\  /    A nd           | Web:      www.OpenFOAM.org                      |
|    \\/     M anipulation  |                                                 |
\*---------------------------------------------------------------------------*/
FoamFile
{
    version     2.0;
    format      ascii;
    class       surfaceScalarField;
    location    "14";
    object      phi;
}
// * * * * * * * * * * * * * * * * * * * * * * * * * * * * * * * * * * * * * //

dimensions      [0 3 -1 0 0 0 0];

internalField   nonuniform List<scalar> 
2360
(
38900.3
43597.7
-4697.4
43597.7
43597.7
50180.6
-6582.94
50180.6
50180.6
50180.6
60585
-10404.4
60585
60585
76141.4
-15556.4
76141.4
76141.4
100586
-24445
100586
100586
134099
-33512.3
134099
134099
147062
163972
180788
196798
211994
226266
191226
48707.6
203671
214977
225124
234113
241928
248555
253980
258231
261392
263623
264966
265891
267391
137187
130204
137187
137187
137187
36859.1
100328
36859.1
36859.1
36859.1
9096.19
27762.9
9096.18
9096.19
-9706.9
18803.1
-9706.88
-9706.9
-9706.87
-103194
93487.5
-103194
-103194
-103194
-241755
138560
-241352
-238846
-235249
-230870
-225789
-220017
-213567
-206417
-198539
-189880
-180371
-169929
-158472
-183932
38125.4
-170439
-155734
-140005
-123625
-107918
-97880.4
-97880.4
-97880.3
-59666.5
-38213.9
-59666.5
-59666.5
-38118.5
-21548
-38118.5
-38118.5
-23926.6
-14191.9
-23926.6
-23926.6
-12342.5
-11584
-12342.5
-12342.5
-12342.5
-314.4
-12028.1
-314.405
-314.4
11568.4
-11882.8
-53477.1
-51812.3
-36720
45735.2
-32903.7
94281.7
-29789
115602
-26546.4
130527
-23329.8
137839
-19961.4
135584
-16228.8
121309
-11335.1
89016.9
452.181
23740
10418.6
-41891.9
19487.8
-71785.4
28881.5
-63876.8
33324.4
-8991.49
30322.3
45184.2
23341
58645.9
17237.2
43170.5
13860.5
32643.9
13769.9
-47632.8
-68076.8
-32876.9
30979.2
-31493.7
92898.6
-29949.5
114058
-27058.4
127636
-24040.5
134821
-20805.7
132350
-16983
117486
-10826.4
82860.3
4914.11
7999.5
13730.2
-50707.9
21860.6
-79915.9
30950.8
-72967
36640.8
-14681.5
33580.2
48244.9
24464.8
67761.3
16864
50771.3
12854.5
36653.4
14596.2
-38487.3
-75673.7
-29925.9
22417.8
-29276.2
92248.9
-29758
114540
-27971.6
125850
-25163.7
132013
-22150.7
129337
-18287.4
113623
-10733.9
75306.8
3347.92
-6082.29
7454.93
-54815
12620.2
-85081.2
16295.9
-76642.6
24874.4
-23260.1
30029.7
43089.6
24442.8
73348.3
16707.5
58506.6
11854.3
41506.6
14866.5
-33980.5
-78383.1
-28323
16760.3
-27806.1
91732
-29013
115746
-29110.2
125947
-26909.7
129812
-24088.4
126515
-20025.3
109560
-10591.9
65873.4
-3500.2
-13174
-5816.06
-52499.1
-4443.75
-86453.5
-5625.81
-75460.6
4651.57
-33537.4
16932.5
30808.6
19264.6
71016.3
15418.2
62352.9
12238.1
44686.8
12912.7
-38945.2
-78336.7
-31409.1
9224.26
-28199.9
88522.7
-28461.1
116008
-30014.6
127500
-29249.3
129047
-26690.3
123956
-22557.1
105427
-14888
58204.4
-14060.8
-14001.2
-17749.4
-48810.5
-22881.7
-81321.2
-26938.5
-71403.8
-17846.4
-42629.5
-1845.74
14807.9
10047.6
59122.9
13132.6
59267.9
15174.9
42644.4
6539.68
-48561.2
-76772.3
-38703.3
-633.634
-31392
81211.5
-29232.3
113848
-30724.1
128992
-31715.8
130039
-30006.2
122247
-26138.7
101559
-19769.6
51835.3
-18815.2
-14955.7
-26672.6
-40953.1
-42917.9
-65076
-50067.2
-64254.4
-43084
-49612.8
-24185.1
-4091.02
-4087.24
39025.1
6732.76
48447.9
22234.9
27142.3
-9439.3
-59720.6
-73908.2
-49079.3
-11274.9
-37877.5
70009.7
-32386
108356
-32047.6
128654
-33976.2
131968
-33859.3
122130
-30122.9
97822.9
-22476.8
44189.2
-24759.4
-12673.1
-44474.7
-21237.7
-68512.9
-41037.7
-75725
-57042.4
-72180.9
-53156.8
-53775.4
-22496.5
-26096.9
11346.6
677.992
21673
13139
14681.3
41825.2
-71547.1
-69857.2
-61407.1
-21414.9
-47326.4
55928.9
-38472.4
99502.5
-35045.7
125227
-36253
133175
-37809.6
123686
-37268.6
97282
-43912.3
50832.8
-66049.2
9463.92
-83194.4
-4092.62
-94335.6
-29896.5
-101616
-49762
-102207
-52566.1
-92985
-31718.1
-79184.8
-2453.61
-77734.6
20222.8
-102963
39910.2
77422.1
-83604.6
-64511.8
-74894.7
-30124.8
-58998.9
40033.1
-47318.1
87821.7
-40460.7
118370
-39237.2
131951
-41351.5
125801
-44669.6
100600
-58447.7
64610.9
-84929.3
35945.6
-104104
15082.1
-114546
-19454.6
-121294
-43013.8
-124782
-49077.8
-123483
-33018
-119733
-6203.09
-117947
18436.6
-115528
37491.6
55381.3
-95204.2
-57600.3
-89023
-36305.9
-72379.1
23389.2
-58514.2
73956.8
-48720.6
108576
-44240.4
127471
-45296.4
126857
-51657.5
106961
-69393.7
82347
-95697.5
62249.4
-112105
31489.1
-118191
-13368.1
-123256
-37948.5
-127540
-44794.3
-126733
-33824.6
-119768
-13168.4
-104773
3441.46
-75159.9
7878.63
-975.508
-105255
-48691.4
-103331
-38229.9
-87585
7642.81
-71853.4
58225.1
-59564.4
96287
-51880.3
119787
-50675.2
125652
-58463.2
114749
-77360.9
101245
-97787.9
82676.4
-102790
36491.7
-101003
-15155.3
-106770
-32182.1
-116529
-35035.3
-121577
-28776.5
-118247
-16497.9
-104109
-10696.8
-75284.7
-20945.6
-48497.4
-112218
-37557
-116492
-33955.3
-104951
-3899
-88300.3
41574.9
-73094.1
81080.8
-62259.5
108953
-58947.2
122339
-67120.5
122923
-83432.1
117556
-91115.9
90360.2
-78870.7
24246.5
-69781.9
-24244.1
-75795.7
-26168.3
-89265.7
-21565.3
-105191
-12850.9
-118353
-3336.22
-126044
-3005.66
-124155
-22835.1
-72324
-114452
-24649.8
-125179
-23228.3
-122076
-7001.44
-109184
28682.4
-93069.4
64966.4
-80275.1
96158.2
-75556.7
117621
-81042.7
128409
-87186
123700
-75082.5
78256.7
-49066.7
-1769.33
-40671.4
-32639.4
-46931.8
-19908
-54749.4
-13747.7
-66293.5
-1306.83
-80352.4
10722.7
-96673
13315
-115460
-4047.78
-57580
-111017
-10960
-125889
-8356.99
-131660
-1230.25
-127992
25014.5
-117414
54388.1
-106214
84958.1
-98992
110399
-95086.1
124503
-82859.2
111473
-49949.5
45347
-22654.2
-29064.7
-20753.8
-34539.8
-25894.8
-14766.9
-29205.5
-10437
-29433.5
-1078.77
-22959.5
4248.65
-7324.61
-2319.89
-338.113
-11034.3
-9210.46
-101433
2173.73
-117432
7642.46
-128236
9573.05
-133051
29830.1
-130894
52231
-123563
77627
-112770
99606.4
-96052.4
107785
-64361.4
79781.8
-21503.8
2489.36
-5121.04
-45447.5
-9128.29
-30532.5
-11308.2
-12587.1
-12481.7
-9263.51
-10237.5
-3322.97
-4330.66
-1658.19
2651.56
-9302.11
17073
-25455.7
-25649.8
-87316.9
13924.7
-102950
23275.6
-115111
21734.2
-123326
38044.8
-125614
54518.7
-120045
72058.8
-104965
84525.6
-76612
79432.3
-31245.5
34415.2
-896.455
-27859.7
-2017.61
-44326.3
-3847.34
-28702.8
-2764.88
-13669.5
-3019.28
-9009.11
-1647.09
-4695.16
1441.05
-4746.33
4385.47
-12246.5
14348.4
-35418.6
-35746.4
-71961.5
23444
-86441.1
37755.1
-98374.7
33667.8
-106097
45766.6
-107512
55933.8
-99225.8
63772.9
-78608.1
63908
-44175.9
45000
-7438.4
-2322.23
2032.84
-37330.9
-3623.96
-38669.5
-2410.21
-29916.5
1135.26
-17215
2446.16
-10320
2757.61
-5006.62
4264.35
-6253.07
6109.36
-14091.5
10926.7
-40236
-40376
-57690.7
30631
-70583
50647.4
-81524.7
44609.5
-86762.4
51004.3
-83959.5
53130.9
-69823.7
49637.1
-44528.9
38613.2
-12410.7
12881.9
2281.47
-17014.4
-1855.71
-33193.7
-2613.6
-37911.6
-546.643
-31983.5
2746.68
-20508.3
5032.89
-12606.2
5544.48
-5518.21
6113.12
-6821.71
6814.66
-14793.1
8889.92
-42311.2
-41890.6
-45399.1
34699.5
-56553.2
61801.5
-67677.3
55733.7
-69727.5
53054.4
-59945.9
43349.4
-39394.7
29085.9
-16219.7
15438.2
-3022.25
-315.632
-1965.35
-18071.3
-2167.96
-32991.1
-1128.09
-38951.5
864.654
-33976.2
3333.4
-22977.1
5417.26
-14690.1
6178.62
-6279.57
6121.17
-6764.26
6082.12
-14754
7446.4
-43675.5
-41027.1
-33020.8
-37711
-46215.2
-46967.7
-36220.5
-19360.5
-8602.69
-5649.56
-4110.47
-2096.54
-252.631
1745.98
3660.85
5142.01
5399.15
5412.23
5626.75
6828.22
2707.13
-15670.9
4362.23
-18564.9
5553.73
-18007.7
6531.36
-16986.9
7328.97
-15994.2
7941.82
-14884.6
7940.86
-13667
7848.66
-12353
7488.53
-10945.1
6843.31
-9501.81
5912.24
-8057.81
4704.41
-6607.42
3200.93
-5123.51
1412.88
-3636.95
-494.425
-2344.53
-2146.97
-1508.18
-3049.82
-1328.45
-2657.8
-1734.63
-1092.84
-2490.02
-2593.66
-869.653
-14801.3
-2853.48
-16581
-4836.58
-16024.7
-6686.01
-15137.5
-8543.3
-14136.9
-10325.6
-13102.3
-12046.5
-11946.1
-13746.5
-10652.9
-15438.4
-9253.32
-17143.1
-7797.02
-18836.2
-6364.82
-20424.3
-5019.26
-21746
-3801.83
-22517.9
-2865.06
-22271.9
-2590.62
-20426.6
-3353.45
-16630.1
-5124.94
-11009.3
-7355.46
-4681.2
-8818.14
-7274.86
-2583.24
-12218.1
-3947.35
-15216.9
-5133.96
-14838.1
-6389.15
-13882.3
-7875.83
-12650.3
-9483.26
-11494.9
-11023.7
-10405.7
-12364.4
-9312.23
-13452.6
-8165.11
-14261.1
-6988.52
-14783.6
-5842.34
-14972.2
-4830.76
-14670.4
-4103.56
-13634.1
-3901.46
-11717
-4507.73
-9008.99
-6061.44
-5911.2
-8222.75
-3070.84
-10195.8
-1178.04
-10711
-8452.91
-539.235
-11678.9
-234.948
-15521.2
136.609
-15209.6
478.012
-14223.7
750.696
-12923
934.739
-11678.9
1170.14
-10641.1
1611.23
-9753.34
2361.78
-8915.67
3455.19
-8081.94
4850.98
-7238.14
6433.35
-6413.14
8026.54
-5696.76
9377.64
-5252.58
10111.1
-5241.18
9804.9
-5755.27
8234.05
-6651.9
5590.23
-7552.03
2545.06
-7665.79
-5907.85
93.9794
-11772.9
854.155
-16281.4
1604.87
-15960.4
2254.72
-14873.6
2901.92
-13570.2
3558.92
-12336
4254.8
-11337.1
5006.54
-10505.1
5849.7
-9758.85
6810.96
-9043.24
7910.98
-8338.18
9124.82
-7627.01
10331.8
-6903.73
11272.1
-6192.93
11601.6
-5570.67
10987.1
-5140.78
9296.02
-4960.84
6626.12
-4882.13
3483.24
-4522.92
-2424.61
584.716
-12357.6
1501.6
-17198.3
2137.76
-16596.5
2568.6
-15304.4
2971.52
-13973.1
3413.05
-12777.5
3899.91
-11823.9
4366.03
-10971.3
4780.42
-10173.2
5129.39
-9392.22
5425.79
-8634.57
5697.19
-7898.42
5974.88
-7181.42
6250.65
-6468.7
6434.54
-5754.56
6319.27
-5025.51
5668.49
-4310.05
4304.22
-3517.85
2250.25
-2468.93
-174.359
1175.84
-13533.4
2071.98
-18094.5
2573.37
-17097.9
2911.57
-15642.7
3318.82
-14380.4
3808.15
-13266.9
4369.43
-12385.2
4926.42
-11528.3
5442.46
-10689.3
5867.66
-9817.43
6163.66
-8930.58
6298.02
-8032.8
6256.64
-7140.04
6041.71
-6253.77
5664.41
-5377.26
5110.88
-4471.99
4322.25
-3521.43
3189.15
-2384.75
1610.89
-890.674
1436.53
1971.91
-15505.3
2712.29
-18834.9
3122.97
-17508.6
3529.53
-16049.2
4151.33
-15002.2
4911.22
-14026.7
5790.96
-13264.9
6687.68
-12425
7544.3
-11545.9
8260.22
-10533.3
8776.34
-9446.7
9047.55
-8304
9049.95
-7142.44
8757.92
-5961.74
8149.3
-4768.64
7201.33
-3524.01
5904.12
-2224.22
4202.27
-682.895
2185.36
1126.24
3621.89
2061.85
-17567.2
2104.32
-18877.3
2188.94
-17593.2
2482.01
-16342.3
3086.21
-15606.4
3877.46
-14818
4857.79
-14245.3
5888.33
-13455.5
6848.96
-12506.5
7564.47
-11248.9
7979.87
-9862.11
8074.6
-8398.74
7851.25
-6919.1
7273.93
-5384.43
6300.27
-3795
4926.81
-2150.56
3313.32
-610.765
1710.4
919.985
271.115
2565.49
3893.01
457.386
-18024.6
-522.123
-17897.8
-1214.24
-16901.1
-1720.28
-15836.3
-2052.52
-15274.2
-2271.49
-14599
-2380
-14136.8
-2468.43
-13367.1
-2656.63
-12318.3
-3044.18
-10861.3
-3626.85
-9279.45
-4360.75
-7664.83
-5208.42
-6071.43
-6141.33
-4451.52
-7090.98
-2845.36
-7886.98
-1354.56
-8190.12
-307.627
-7357.37
87.2298
-4704.57
-87.3198
-811.569
-1130.19
-16894.4
-2228.06
-16800
-3371.86
-15757.3
-4595.61
-14612.5
-5841.24
-14028.5
-7201.01
-13239.3
-8637.89
-12699.9
-10147
-11858
-11685.9
-10779.5
-13226.6
-9320.55
-14758.1
-7747.97
-16256.5
-6166.47
-17642.5
-4685.41
-18688.7
-3405.32
-18957.1
-2576.99
-17859.4
-2452.22
-15025.1
-3141.98
-10443.7
-4494.15
-4673.5
-5857.53
-5485.07
-977.018
-15917.4
-1388.13
-16388.8
-2050.85
-15094.6
-2977.76
-13685.6
-3954.5
-13051.8
-5195.37
-11998.4
-6578.1
-11317.1
-8056.86
-10379.2
-9363.01
-9473.32
-10332.3
-8351.27
-10879.6
-7200.64
-11002.6
-6043.39
-10681.2
-5006.81
-9862.69
-4223.8
-8488.96
-3950.7
-6517.04
-4424.12
-4104.08
-5554.92
-1756.27
-6841.94
-287.895
-7325.89
-5772.97
168.292
-16085.6
530.005
-16750.5
829.3
-15393.9
986.395
-13842.6
1142.8
-13208.2
1190.75
-12046.3
1163.01
-11289.4
1098.96
-10315.1
1142.23
-9516.59
1462.71
-8671.73
2154.67
-7892.59
3247.55
-7136.26
4679.59
-6438.84
6271.56
-5815.76
7637.32
-5316.44
8232.62
-5019.42
7604.2
-4926.49
5673.05
-4910.78
2886.26
-4539.09
-2886.71
645.821
-16731.4
929.359
-17034
1357.16
-15821.6
1795.05
-14280.5
2271.22
-13684.3
2769.58
-12544.6
3293.07
-11812.9
3854.38
-10876.4
4427.58
-10089.8
5033.7
-9277.82
5665.26
-8524.12
6320.38
-7791.35
6960.04
-7078.48
7508.85
-6364.55
7834.08
-5641.65
7708.12
-4893.44
6906.32
-4124.68
5244.46
-3248.9
2835.41
-2130
-51.2925
893.976
-17625.4
914.316
-17054.4
1312.62
-16219.9
1734.73
-14702.6
2222.6
-14172.1
2699.38
-13021.4
3222.25
-12335.7
3762.46
-11416.6
4337.97
-10665.3
4921.73
-9861.56
5502.73
-9105.1
6046.72
-8335.33
6514.66
-7546.41
6837.15
-6687.02
6917.59
-5722.07
6608.57
-4584.4
5812.05
-3328.15
4421.37
-1858.2
2393
-101.598
2341.71
655.287
-18280.7
499.934
-16899
774.576
-16494.5
1098.36
-15026.4
1481.22
-14555
1914.4
-13454.5
2398.76
-12820
2942.22
-11960
3553.51
-11276.5
4239.29
-10547.3
5003.66
-9869.45
5811.84
-9143.48
6583.77
-8318.32
7163.14
-7266.37
7298.67
-5857.58
6716.33
-4002.04
5445.7
-2057.5
2982.23
605.305
1426.5
1454.17
3768.21
-176.828
-18103.8
-616.111
-16459.7
-820.747
-16289.9
-907.005
-14940.1
-969.703
-14492.3
-887.356
-13536.9
-768.757
-12938.6
-533.232
-12195.5
-225.455
-11584.3
183.453
-10956.2
670.746
-10356.7
1208.53
-9681.25
1709.74
-8819.51
2000.6
-7557.22
1773.98
-5630.95
795.231
-3023.27
-578.738
-683.409
256.637
-229.946
-435.922
2146.75
3332.29
-1499.89
-16603.9
-3063.68
-14895.9
-4332.03
-15021.5
-5325.04
-13947.1
-6234.8
-13582.5
-6895.23
-12876.4
-7465.46
-12368.4
-7866.79
-11794.2
-8168.47
-11282.6
-8350.41
-10774.3
-8433.01
-10274.1
-8403
-9711.25
-8237.77
-8984.73
-7862.88
-7932.1
-7128.4
-6365.43
-5860.84
-4290.82
-4278.35
-2265.88
-3681.32
-826.961
-2040.59
506.037
1291.7
-2167.89
-14436
-4669.74
-12394
-7133.39
-12557.9
-9248.21
-11832.2
-11271.4
-11559.3
-13011.9
-11135.9
-14576.4
-10803.8
-15919
-10451.6
-17080
-10121.5
-18059.3
-9795.01
-18857.2
-9476.15
-19422.5
-9146
-19633.6
-8773.57
-19248.4
-8317.31
-17874.7
-7739.1
-15148.3
-7017.27
-11251.2
-6162.95
-6972.08
-5106.1
-2882.7
-3583.34
-1591
-5336
-8630.01
-12087.9
-14820.1
-17279.4
-19315.3
-21019.1
-22370.7
-23392.3
-24087.3
-24463.4
-24509.4
-24183
-23400.3
-22039.4
-19956.6
-17019.6
-13025.7
-7509
-5335.34
14435.3
-8628.42
12393.1
-12085.4
12556.9
-14816.6
11831.2
-17274.9
11558.3
-19309.7
11134.8
-21012.2
10802.6
-22362.5
10450.2
-23382.4
10119.9
-24075.6
9793.2
-24449.7
9474.06
-24493.3
9143.59
-24164.2
8770.93
-23379
8314.8
-22016.2
7737.26
-19933
7016.78
-16998.4
6165.36
-13011.3
5112.92
-7504.5
3593.19
1595.5
-2167.1
16602.4
-4668.64
14894.6
-7131.87
15020.2
-9246.39
13945.8
-11269.3
13581.2
-13009.6
12875.1
-14574
12366.9
-15916.2
11792.5
-17077
11280.7
-18055.8
10772
-18853.1
10271.4
-19417.3
9707.79
-19626.5
8980.05
-19236.4
7924.72
-17853
6353.87
-15116.2
4279.95
-11218.2
2267.39
-6944.77
839.512
-2863.39
-488.188
-1267.89
-1498.83
18101.3
-3063.06
16458.9
-4331.6
16288.7
-5326.03
14940.2
-6236.93
14492.1
-6899.31
13537.4
-7471.34
12939
-7874.97
12196.2
-8179.37
11585.1
-8365.05
10957.7
-8452.51
10358.8
-8428.13
9683.41
-8268.46
8820.38
-7896.39
7552.66
-7157
5614.48
-5873.74
2996.69
-4275.42
669.063
-3660.92
225.014
-2021.66
-2127.45
-3289.55
-186.278
18287.5
-629.717
16902.3
-840.328
16499.3
-931.423
15031.3
-1000.4
14561.1
-923.918
13461
-813.95
12829
-588.027
11970.2
-292.51
11289.6
103.356
10561.9
576.456
9885.73
1099.41
9160.46
1585.33
8334.46
1860.91
7277.09
1621.1
5854.29
644.198
3973.58
-676.699
1989.96
159.827
-611.512
-490.729
-1476.9
-3780.27
640
17647.5
483.381
17058.9
745.564
16237.1
1049.32
14727.5
1412.76
14197.6
1824.05
13049.7
2290.95
12362.1
2819.67
11441.5
3422.6
10686.6
4103.01
9881.43
4863.54
9125.21
5669.46
8354.54
6441.45
7562.47
7022.18
6696.35
7156.65
5719.82
6565.33
4564.9
5265.18
3290.12
2847.93
1805.74
1353.87
17.155
-2426.4
911.591
16736
909.915
17060.6
1320.71
15826.3
1784.36
14263.9
2300.78
13681.2
2812.63
12537.8
3346.45
11828.3
3885.48
10902.5
4429.11
10143
4970.53
9340.01
5508.21
8587.53
6011.09
7851.65
6441.45
7132.12
6731.42
6406.37
6781.54
5669.71
6448.07
4898.37
5647.16
4091.02
4293.76
3159.14
2328.33
1982.58
-98.0725
651.951
16084
1154.48
16558.1
1620.8
15360
1874.94
14009.8
2240.4
13315.7
2532.84
12245.4
2902.86
11458.2
3333.58
10471.8
3881.33
9595.27
4521.9
8699.44
5202.73
7906.7
5891.64
7162.75
6500.39
6523.36
6961.03
5945.74
7184.27
5446.46
7000.8
5081.85
6236.95
4854.87
4740.51
4655.58
2573.54
4149.56
2475.46
148.834
15935.2
606.619
16100.3
553.067
15413.6
-6.38765
14569.2
-509.89
13819.3
-1166.86
12902.3
-1704.01
11995.4
-2130.6
10898.4
-2192.43
9657.09
-1691.17
8198.19
-571.088
6786.61
961.211
5630.45
2732.36
4752.22
4539.15
4138.95
5991.91
3993.69
6606.58
4467.18
6088.84
5372.62
4495.61
6248.8
2262.15
6383.02
4737.62
-563.202
16498.4
-1037.69
16574.8
-1839.39
16215.3
-2916.36
15646.2
-4072.1
14975
-5383.68
14213.9
-6765.31
13377
-8233.76
12366.8
-9561
10984.3
-10352.8
8989.94
-10449.7
6883.53
-10114.9
5295.69
-9414.09
4051.4
-8316.1
3040.95
-6769.6
2447.2
-4797.1
2494.68
-2705.3
3280.82
-1007.13
4550.63
-122.6
5498.49
4615.01
-505.74
17004.1
-1034.4
17103.4
-1398.53
16579.4
-1693.64
15941.3
-2002.2
15283.5
-2424.45
14636.2
-3041.53
13994.1
-3976.22
13301.5
-5339.21
12347.3
-7134.64
10785.4
-9177.86
8926.75
-11246.6
7364.45
-13183.2
5987.99
-14742.6
4600.34
-15447.1
3151.72
-14740.6
1788.11
-12253.9
794.16
-8131.89
428.628
-3432.76
799.358
1182.25
667.971
16336.1
1077.52
16693.9
1798.41
15858.5
2657.3
15082.4
3535.51
14405.3
4358.93
13812.8
5055.3
13297.7
5537.21
12819.6
5589.02
12295.5
4849.12
11525.3
3362.97
10412.9
1555.85
9171.57
-320.254
7864.1
-2172.39
6452.47
-3966.93
4946.26
-5540.48
3361.66
-6420.31
1673.99
-5964.68
-27.0018
-3855.15
-1310.17
-2672.9
1548.06
14788.1
2746.73
15495.2
3973.81
14631.4
5162.89
13893.3
6299.24
13269
7394.89
12717.1
8487.04
12205.6
9612.74
11693.9
10637.7
11270.5
11287.1
10876
11418.2
10281.8
11116.8
9472.96
10472.3
8508.54
9479
7445.8
8106.05
6319.2
6356.48
5111.23
4221.26
3809.21
1870.73
2323.54
133.567
426.994
-2539.34
1377.5
13410.6
2551.94
14320.8
3517.89
13665.5
4308.47
13102.7
4983.25
12594.2
5593.63
12106.7
6203.22
11596
6889.15
11008
7627.4
10532.2
8296.24
10207.1
8757.42
9820.61
8947.23
9283.15
8854.1
8601.67
8483.93
7815.97
7841.74
6961.39
6918.2
6034.78
5691.92
5035.49
4158.07
3857.38
2265
2320.07
-274.339
923.147
12487.4
1849.43
13394.5
2517.88
12997
3010.12
12610.5
3435.37
12169
3851.86
11690.2
4275.45
11172.4
4738.93
10544.5
5293.52
9977.65
5900.49
9600.16
6429.75
9291.35
6772.36
8940.53
6885.51
8488.52
6764.53
7936.95
6399.77
7326.15
5743.96
6690.6
4747.92
6031.52
3392.3
5213.01
1738.64
3973.72
1464.3
468.602
12018.8
940.062
12923
1111.03
12826.1
1259.03
12462.5
1693.34
11734.6
2513.76
10869.8
3581.98
10104.2
4710.95
9415.53
5881.29
8807.31
7114.6
8366.86
8317.8
8088.16
9357.62
7900.71
10115.1
7731.02
10467
7585.08
10270.1
7523
9376.47
7584.27
7746.93
7661.06
5452.59
7507.35
2826.83
6599.48
4291.13
-255.753
12274.6
-942.426
13609.7
-2010.16
13893.8
-2883.32
13335.7
-3133.34
11984.7
-2781.59
10518.1
-2180.3
9502.88
-1518.67
8753.9
-671.095
7959.74
542.403
7153.36
2202.63
6427.93
4266.69
5836.65
6522.02
5475.68
8558.62
5548.49
9849.86
6231.76
9949.39
7484.73
8675.53
8934.92
6183.16
9999.72
3019.65
9762.99
7310.78
-2518.41
14793
-5056.51
16147.8
-7790.14
16627.4
-10349.5
15895.1
-12551.2
14186.3
-14435.3
12402.2
-16222.1
11289.7
-17894.7
10426.5
-19284.6
9349.58
-20222.1
8090.9
-20545.1
6750.89
-20141.7
5433.29
-18988.7
4322.71
-17073.4
3633.15
-14336.2
3494.61
-10795.8
3944.25
-6838.34
4977.51
-3223.58
6384.95
-901.761
7441.18
6409.02
-1658
16451
-4156.66
18646.5
-6369.58
18840.3
-8524.72
18050.2
-10863.1
16524.7
-13192.5
14731.6
-15298.9
13396.1
-17201.8
12329.5
-19013.6
11161.3
-20791.3
9868.6
-22542.9
8502.5
-24202.1
7092.47
-25564.3
5684.92
-26214.6
4283.46
-25561.2
2841.16
-23022.8
1405.88
-18379
333.68
-12034.3
40.2984
-5121.72
528.571
1287.3
2247.42
14203.6
1777.22
19116.6
1281.39
19336.2
880.3
18451.3
283.849
17121.1
-454.2
15469.6
-1032.97
13974.9
-1348.28
12644.8
-1554.95
11368
-1796.56
10110.2
-2163.75
8869.69
-2709.2
7637.91
-3428.05
6403.75
-4285.74
5141.15
-5261.49
3816.89
-6227.29
2371.68
-6779.11
885.466
-6331.66
-407.178
-4226.57
-1576.56
-2939.27
4166.14
7575.9
10531.6
13253.7
15670.4
17646.3
18956.2
20144.2
21069.6
21671.1
21881.5
21641.5
20895.8
19586.3
17631.9
14922
11428.7
7424.41
3341.57
)
;

boundaryField
{
    outletWall
    {
        type            calculated;
        value           nonuniform List<scalar> 
60
(
11568.4
-11792.2
-29267.2
-37066.7
-51664.6
-42182.1
4548.55
54483.1
62716.3
31925.4
-35527.3
-93910.6
-125042
-138953
-141055
-133770
-118717
-98098
-62492.3
35715.6
33866
41330.7
50503.6
62442.2
75565.9
88299.2
97327.6
101544
101083
96346.5
88292.8
78259.1
67496.1
56856.4
46996.8
38898.8
36689.9
46084.2
63897.3
69573.8
-38900.3
-38896.3
-44877
-14968.5
-6777.34
-6536.71
-16171.2
-24891.9
-35974.8
-40795.4
-35005
-19610.4
-3268.77
4680.45
12225.8
32602.2
53806.9
64237.9
66491.6
33854.3
)
;
    }
    fineWalls
    {
        type            calculated;
        value           uniform 0;
    }
    fineFrontAndBack
    {
        type            calculated;
        value           nonuniform List<scalar> 
960
(
4.48611e-15
3.62941e-13
-2.5355e-13
-3.19604e-13
-1.11704e-12
-1.73259e-13
2.5863e-13
-1.28479e-12
5.59888e-12
3.77037e-12
5.12153e-12
-2.22054e-11
-9.71071e-12
-7.46725e-12
-8.29723e-11
-1.88182e-11
-1.74929e-11
-8.19616e-11
-1.51869e-11
-1.4807e-11
-1.84199e-12
-8.13801e-13
-8.18008e-13
-1.1195e-12
-1.36386e-12
-1.33989e-12
-8.87927e-11
-4.46877e-13
-4.27425e-13
-3.74907e-13
-3.27617e-13
-3.99409e-13
-6.77686e-13
-1.1118e-12
-1.62475e-12
-2.28053e-12
-3.79728e-12
-6.3105e-12
-8.82937e-12
-1.07328e-11
-2.51215e-10
-3.11145e-11
-2.96562e-11
-3.04196e-11
-1.53816e-10
-2.1062e-11
-1.90967e-11
-1.58133e-11
-6.60114e-11
2.77077e-13
4.1926e-12
2.46028e-11
4.77721e-12
6.46854e-12
8.2195e-12
7.13764e-11
1.57641e-11
1.92165e-11
2.11396e-11
1.95726e-10
9.57078e-12
7.5789e-12
7.29874e-12
6.59201e-12
6.31459e-12
5.88795e-12
5.52506e-12
5.17932e-12
4.86541e-12
4.51478e-12
4.15652e-12
3.74258e-12
3.30248e-12
9.6271e-11
3.22327e-12
3.04469e-12
2.48238e-12
1.66532e-12
7.99903e-13
5.11944e-13
-6.84819e-13
6.57609e-13
9.63412e-12
-2.28683e-12
-2.0649e-12
-3.4493e-12
-7.88233e-14
-1.05402e-12
-5.31254e-12
-4.68495e-13
-1.63964e-12
-5.82318e-12
-6.7514e-13
-7.72279e-13
-8.47031e-13
-3.61278e-12
-4.76432e-13
-1.40891e-13
-8.0365e-12
-2.21915e-12
-1.98245e-11
2.20373e-10
2.80367e-10
3.03917e-10
3.16405e-10
3.21353e-10
3.22107e-10
3.21249e-10
3.18174e-10
3.08905e-10
2.95266e-10
2.74207e-10
2.3384e-10
2.08961e-10
2.08297e-10
1.75877e-10
1.04232e-10
3.41232e-11
3.67565e-12
-1.41398e-10
1.91065e-10
2.9873e-10
3.06745e-10
3.16482e-10
3.2164e-10
3.22108e-10
3.21149e-10
3.17727e-10
3.08405e-10
2.92494e-10
2.37269e-10
1.77186e-10
1.49779e-10
1.76706e-10
1.75353e-10
1.1825e-10
4.52526e-11
8.77607e-12
-1.02571e-10
1.14183e-10
2.97365e-10
3.19118e-10
3.16426e-10
3.21531e-10
3.22215e-10
3.20991e-10
3.17239e-10
3.0627e-10
2.67679e-10
1.82487e-10
1.32629e-10
1.19243e-10
1.37347e-10
1.5849e-10
1.2716e-10
5.77688e-11
1.65793e-11
-4.07773e-11
6.97738e-11
2.49833e-10
3.30021e-10
3.21624e-10
3.20377e-10
3.22274e-10
3.20886e-10
3.16667e-10
2.93355e-10
2.33017e-10
1.43199e-10
1.2387e-10
1.21723e-10
1.1597e-10
1.38734e-10
1.27667e-10
6.90322e-11
3.12366e-11
-3.32201e-11
3.53864e-11
1.88758e-10
3.16218e-10
3.32697e-10
3.20444e-10
3.21618e-10
3.21154e-10
3.14957e-10
2.74019e-10
2.20772e-10
1.37409e-10
1.32551e-10
1.246e-10
1.125e-10
1.25845e-10
1.23672e-10
7.71359e-11
6.43845e-11
-5.72122e-11
1.09598e-11
1.47318e-10
2.78155e-10
3.3799e-10
3.2543e-10
3.20604e-10
3.20978e-10
3.08756e-10
2.555e-10
2.12492e-10
1.35146e-10
1.36991e-10
1.31066e-10
1.18233e-10
1.15471e-10
1.1719e-10
8.54504e-11
8.73794e-11
-8.12794e-11
1.52607e-11
1.38265e-10
2.40219e-10
3.26642e-10
3.3276e-10
3.20552e-10
3.1982e-10
3.04001e-10
2.33858e-10
1.85295e-10
1.23173e-10
1.36638e-10
1.38802e-10
1.34128e-10
1.2035e-10
1.05056e-10
6.60774e-11
1.20709e-10
-9.94983e-11
4.182e-11
1.68328e-10
2.28826e-10
3.08949e-10
3.38986e-10
3.25472e-10
3.1694e-10
2.70993e-10
1.40495e-10
1.01133e-10
1.12754e-10
1.15886e-10
1.30537e-10
1.50968e-10
1.70442e-10
2.0077e-10
2.48019e-10
2.95341e-10
-1.17864e-10
6.61707e-11
2.21317e-10
2.44996e-10
2.93452e-10
3.34361e-10
3.311e-10
3.13108e-10
2.46741e-10
1.25205e-10
6.4035e-11
3.85796e-11
4.34251e-11
6.7109e-11
1.09877e-10
1.49113e-10
1.9852e-10
2.29538e-10
2.13717e-10
-1.41661e-10
6.46954e-11
2.78978e-10
3.02364e-10
3.09198e-10
3.34689e-10
3.31846e-10
3.08784e-10
2.0617e-10
3.00086e-11
-9.54688e-11
-1.35123e-10
-1.07885e-10
-8.65121e-11
-2.80402e-11
-8.45902e-13
4.36164e-11
6.76642e-11
6.31335e-11
-1.68082e-10
1.47781e-11
2.51204e-10
3.34956e-10
3.41857e-10
3.48097e-10
3.444e-10
2.91403e-10
1.47265e-10
-5.84295e-11
-1.95672e-10
-2.46652e-10
-2.49254e-10
-2.46645e-10
-2.26192e-10
-1.98862e-10
-1.83796e-10
-1.77049e-10
-1.664e-10
-1.93475e-10
-4.81148e-11
1.57129e-10
2.84383e-10
3.2642e-10
3.36536e-10
3.23248e-10
2.46144e-10
7.33673e-11
-1.24199e-10
-2.24638e-10
-2.16021e-10
-2.12518e-10
-2.40545e-10
-2.79218e-10
-3.08523e-10
-3.37492e-10
-3.56812e-10
-3.38516e-10
-2.25043e-10
-1.2662e-10
2.82378e-11
1.60399e-10
2.33881e-10
2.64401e-10
2.46585e-10
1.54301e-10
-1.42187e-11
-1.65521e-10
-1.90176e-10
-1.2965e-10
-1.42813e-10
-1.62115e-10
-2.00354e-10
-2.51348e-10
-2.91274e-10
-3.20992e-10
-3.67748e-10
-2.51271e-10
-1.96321e-10
-9.7269e-11
-1.20919e-13
7.81228e-11
1.20275e-10
1.06353e-10
2.43995e-11
-9.96988e-11
-1.75922e-10
-1.26994e-10
-8.50861e-11
-9.17233e-11
-1.01779e-10
-1.13585e-10
-1.24491e-10
-1.02692e-10
-4.85106e-11
-1.42676e-10
-2.71009e-10
-2.53359e-10
-1.92979e-10
-1.38135e-10
-8.20003e-11
-4.62217e-11
-5.06831e-11
-9.85114e-11
-1.56665e-10
-1.56945e-10
-9.02418e-11
-7.70302e-11
-6.26656e-11
-6.21655e-11
-5.57351e-11
-4.95074e-11
-3.39605e-11
-1.73037e-11
-5.52362e-12
-2.74593e-10
-2.91839e-10
-2.51642e-10
-2.24544e-10
-1.93414e-10
-1.70003e-10
-1.63638e-10
-1.71537e-10
-1.67516e-10
-1.18859e-10
-9.50581e-11
-7.40282e-11
-4.68641e-11
-4.05753e-11
-2.96851e-11
-2.1374e-11
-1.45869e-11
-5.8326e-12
1.50663e-11
-2.53678e-10
-3.09894e-10
-2.82375e-10
-2.6671e-10
-2.47013e-10
-2.26813e-10
-2.06631e-10
-1.82907e-10
-1.45622e-10
-1.07801e-10
-9.78416e-11
-7.07744e-11
-4.32908e-11
-2.74434e-11
-1.68639e-11
-8.88519e-12
-3.84994e-12
4.57729e-13
-1.16234e-13
-2.09667e-10
-3.03478e-10
-2.91832e-10
-2.79049e-10
-2.56179e-10
-2.25689e-10
-1.90176e-10
-1.54079e-10
-1.18935e-10
-1.13372e-10
-9.53649e-11
-7.08057e-11
-4.25842e-11
-2.11782e-11
-8.57138e-12
-4.68827e-13
3.78783e-12
5.21416e-13
-2.1058e-12
-1.54018e-10
-2.83574e-10
-2.97263e-10
-2.83333e-10
-2.42632e-10
-1.91099e-10
-1.48723e-10
-1.27184e-10
-1.24547e-10
-1.11748e-10
-9.6094e-11
-7.14503e-11
-4.15359e-11
-1.83997e-11
-3.16144e-12
5.43813e-12
4.16462e-12
-8.65374e-15
-9.15912e-13
-6.68976e-11
-1.94154e-10
-2.43249e-10
-2.56423e-10
-2.17872e-10
-1.58058e-10
-1.28835e-10
-1.30646e-10
-1.24031e-10
-1.12384e-10
-9.66464e-11
-7.1352e-11
-4.01976e-11
-1.59588e-11
-5.26256e-13
6.12023e-12
3.306e-12
-2.24403e-13
-1.23691e-12
-4.48611e-15
-3.62941e-13
2.5355e-13
3.19604e-13
1.11704e-12
1.73259e-13
-2.5863e-13
1.28479e-12
-5.59888e-12
-3.77037e-12
-5.12153e-12
2.22054e-11
9.71071e-12
7.46725e-12
8.29723e-11
1.88182e-11
1.74929e-11
8.19616e-11
1.51869e-11
1.4807e-11
1.84199e-12
8.13801e-13
8.18008e-13
1.1195e-12
1.36386e-12
1.33989e-12
8.87927e-11
4.46877e-13
4.27425e-13
3.74907e-13
3.27617e-13
3.99409e-13
6.77686e-13
1.1118e-12
1.62475e-12
2.28053e-12
3.79728e-12
6.3105e-12
8.82937e-12
1.07328e-11
2.51215e-10
3.11145e-11
2.96562e-11
3.04196e-11
1.53816e-10
2.1062e-11
1.90967e-11
1.58133e-11
6.60114e-11
-2.77077e-13
-4.1926e-12
-2.46028e-11
-4.77721e-12
-6.46854e-12
-8.2195e-12
-7.13764e-11
-1.57641e-11
-1.92165e-11
-2.11396e-11
-1.95726e-10
-9.57078e-12
-7.5789e-12
-7.29874e-12
-6.59201e-12
-6.31459e-12
-5.88795e-12
-5.52506e-12
-5.17932e-12
-4.86541e-12
-4.51478e-12
-4.15652e-12
-3.74258e-12
-3.30248e-12
-9.6271e-11
-3.22327e-12
-3.04469e-12
-2.48238e-12
-1.66532e-12
-7.99903e-13
-5.11944e-13
6.84819e-13
-6.57609e-13
-9.63412e-12
2.28683e-12
2.0649e-12
3.4493e-12
7.88233e-14
1.05402e-12
5.31254e-12
4.68495e-13
1.63964e-12
5.82318e-12
6.7514e-13
7.72279e-13
8.47031e-13
3.61278e-12
4.76432e-13
1.40891e-13
8.0365e-12
2.21915e-12
1.98245e-11
-2.20373e-10
-2.80367e-10
-3.03917e-10
-3.16405e-10
-3.21353e-10
-3.22107e-10
-3.21249e-10
-3.18174e-10
-3.08905e-10
-2.95266e-10
-2.74207e-10
-2.3384e-10
-2.08961e-10
-2.08297e-10
-1.75877e-10
-1.04232e-10
-3.41232e-11
-3.67565e-12
1.41398e-10
-1.91065e-10
-2.9873e-10
-3.06745e-10
-3.16482e-10
-3.2164e-10
-3.22108e-10
-3.21149e-10
-3.17727e-10
-3.08405e-10
-2.92494e-10
-2.37269e-10
-1.77186e-10
-1.49779e-10
-1.76706e-10
-1.75353e-10
-1.1825e-10
-4.52526e-11
-8.77607e-12
1.02571e-10
-1.14183e-10
-2.97365e-10
-3.19118e-10
-3.16426e-10
-3.21531e-10
-3.22215e-10
-3.20991e-10
-3.17239e-10
-3.0627e-10
-2.67679e-10
-1.82487e-10
-1.32629e-10
-1.19243e-10
-1.37347e-10
-1.5849e-10
-1.2716e-10
-5.77688e-11
-1.65793e-11
4.07773e-11
-6.97738e-11
-2.49833e-10
-3.30021e-10
-3.21624e-10
-3.20377e-10
-3.22274e-10
-3.20886e-10
-3.16667e-10
-2.93355e-10
-2.33017e-10
-1.43199e-10
-1.2387e-10
-1.21723e-10
-1.1597e-10
-1.38734e-10
-1.27667e-10
-6.90322e-11
-3.12366e-11
3.32201e-11
-3.53864e-11
-1.88758e-10
-3.16218e-10
-3.32697e-10
-3.20444e-10
-3.21618e-10
-3.21154e-10
-3.14957e-10
-2.74019e-10
-2.20772e-10
-1.37409e-10
-1.32551e-10
-1.246e-10
-1.125e-10
-1.25845e-10
-1.23672e-10
-7.71359e-11
-6.43845e-11
5.72122e-11
-1.09598e-11
-1.47318e-10
-2.78155e-10
-3.3799e-10
-3.2543e-10
-3.20604e-10
-3.20978e-10
-3.08756e-10
-2.555e-10
-2.12492e-10
-1.35146e-10
-1.36991e-10
-1.31066e-10
-1.18233e-10
-1.15471e-10
-1.1719e-10
-8.54504e-11
-8.73794e-11
8.12794e-11
-1.52607e-11
-1.38265e-10
-2.40219e-10
-3.26642e-10
-3.3276e-10
-3.20552e-10
-3.1982e-10
-3.04001e-10
-2.33858e-10