/*--------------------------------*- C++ -*----------------------------------*\
| =========                 |                                                 |
| \\      /  F ield         | OpenFOAM: The Open Source CFD Toolbox           |
|  \\    /   O peration     | Version:  4.1                                   |
|   \\  /    A nd           | Web:      www.OpenFOAM.org                      |
|    \\/     M anipulation  |                                                 |
\*---------------------------------------------------------------------------*/
FoamFile
{
    version     2.0;
    format      ascii;
    class       volVectorField;
    location    "24";
    object      U;
}
// * * * * * * * * * * * * * * * * * * * * * * * * * * * * * * * * * * * * * //

dimensions      [0 1 -1 0 0 0 0];

internalField   nonuniform List<vector> 
1280
(
(3.00804e-17 13.5888 0.330802)
(-1.64903e-16 17.07 -1.83054)
(-3.88905e-17 15.4118 -1.73488)
(-5.09223e-17 15.7527 -1.5885)
(-4.24269e-16 19.9968 -4.4624)
(-3.51918e-16 16.9534 -3.86173)
(-6.62178e-17 19.2315 -3.95859)
(-1.14796e-15 18.2741 -3.39889)
(1.73042e-15 23.2021 -7.38924)
(1.67431e-15 21.0357 -5.98148)
(4.13146e-15 22.3219 -5.15663)
(-3.65073e-15 27.4706 -11.1826)
(-7.92564e-15 25.2473 -9.49733)
(-6.88068e-15 27.3354 -8.55378)
(-1.79686e-14 33.6219 -17.1824)
(-1.62002e-14 31.1482 -14.1785)
(-1.44408e-14 35.0466 -13.3444)
(-1.50822e-14 36.6883 -24.8428)
(-9.64016e-15 43.3481 -19.8694)
(-7.1107e-15 34.7814 -30.6011)
(-5.63957e-15 43.4232 33.5616)
(-4.67187e-15 44.6253 61.144)
(-6.47881e-15 46.5705 78.9448)
(-8.60104e-15 49.4012 89.8996)
(-1.00039e-14 50.8064 96.4125)
(-1.0104e-14 54.3424 101.008)
(-1.94506e-14 45.7459 57.1187)
(-8.07069e-15 90.45 116.789)
(-8.45627e-15 90.3115 117.721)
(-9.34378e-15 92.0521 116.888)
(-1.00996e-14 92.4568 114.937)
(-1.10218e-14 92.4905 111.919)
(-1.26592e-14 92.3724 108.43)
(-1.48624e-14 92.0202 105.015)
(-1.74335e-14 91.4333 102.066)
(-2.04416e-14 90.6722 99.6896)
(-2.43999e-14 89.5511 98.183)
(-3.07924e-14 88.4488 96.7435)
(-3.75514e-14 86.6179 96.5766)
(-4.78606e-14 84.9665 91.5373)
(-4.18036e-14 85.6432 114.354)
(-1.85507e-14 60.5711 82.5934)
(-1.18414e-14 54.0184 82.4743)
(-6.01355e-15 41.4708 80.1508)
(4.94011e-15 33.2406 79.6879)
(7.57299e-15 19.9146 48.1932)
(6.51235e-15 14.734 43.313)
(4.70547e-15 10.0109 33.3831)
(7.77701e-15 7.72863 15.4)
(1.03798e-14 4.28616 5.99161)
(1.35331e-14 3.43596 3.47368)
(1.56165e-14 1.42857 0.356646)
(5.4751e-15 -1.56426 18.2463)
(9.43401e-16 -3.55799 29.8263)
(-4.22535e-15 -8.65733 38.8366)
(-1.3637e-14 -17.017 74.2476)
(-1.0182e-14 -28.8216 87.2439)
(-5.00663e-15 -40.1887 92.3711)
(2.1621e-15 -50.2031 93.742)
(2.61608e-14 -83.5238 133.694)
(4.43714e-14 -73.3192 117.356)
(3.95295e-14 -76.5203 123.65)
(4.02375e-14 -77.01 123.092)
(3.81861e-14 -78.3351 123.686)
(3.64706e-14 -79.1293 123.609)
(3.42331e-14 -79.8419 123.396)
(3.25236e-14 -80.3085 122.766)
(3.12497e-14 -80.5457 121.833)
(3.00688e-14 -80.5139 120.829)
(2.87518e-14 -80.3661 120.046)
(2.70529e-14 -79.9205 119.33)
(2.50677e-14 -78.2057 118.201)
(2.32814e-14 -78.8115 115.193)
(2.70132e-14 -32.9557 51.9048)
(2.39969e-14 -43.173 88.1923)
(2.41316e-14 -39.7572 84.0608)
(2.37749e-14 -38.1398 78.9753)
(2.27824e-14 -35.2015 70.4356)
(2.11355e-14 -33.2935 54.6318)
(2.01968e-14 -32.3386 26.6934)
(1.98273e-14 -27.5847 -34.1043)
(2.09567e-14 -30.5231 -30.4092)
(3.20271e-14 -20.1808 -39.2182)
(2.91307e-14 -18.6642 -21.0886)
(3.2468e-14 -13.5475 -23.3623)
(4.85172e-14 -10.0949 -28.8681)
(4.52273e-14 -6.16372 -15.7434)
(4.0364e-14 -3.03522 -17.4251)
(4.02156e-14 0.900584 -23.898)
(2.23425e-14 3.50939 -16.911)
(1.20901e-14 6.32783 -15.6867)
(3.61369e-14 11.2992 -20.5157)
(3.3252e-14 11.7452 -14.1121)
(3.4052e-14 15.0449 -13.6364)
(3.54168e-14 15.6195 -12.3719)
(4.34064e-14 22.1726 -17.8648)
(3.41117e-14 20.9471 -12.8207)
(3.43422e-14 24.2614 -11.5287)
(3.89795e-14 25.3848 -16.9678)
(3.78036e-14 30.516 -17.3827)
(1.52258e-15 -32.1642 26.8987)
(7.00506e-15 -39.9245 26.2368)
(9.88198e-15 -37.1917 24.7377)
(1.21538e-14 -22.7457 20.8804)
(1.37792e-14 24.2455 4.29082)
(1.08816e-14 38.9746 -2.55162)
(5.55382e-15 34.5083 3.06322)
(3.20685e-15 1.29404 7.22021)
(4.92212e-15 -25.33 1.80902)
(5.37672e-15 -34.4547 -0.422228)
(4.60502e-15 -39.3681 -3.78365)
(4.75513e-15 -46.2906 -7.02918)
(8.82334e-15 -42.9161 -11.1338)
(1.39839e-14 -38.1916 -16.6041)
(1.71032e-14 -30.1609 -21.7178)
(1.8026e-14 -21.3546 -25.1909)
(1.79677e-14 -12.608 -26.9715)
(1.92186e-14 -3.80004 -26.5975)
(1.3062e-14 10.2823 -26.5242)
(2.03108e-15 -32.1692 27.682)
(7.43266e-15 -39.1662 27.5081)
(1.02139e-14 -35.1789 26.5589)
(1.23858e-14 -13.9592 19.2592)
(1.13714e-14 30.2986 2.24352)
(4.82955e-15 38.8665 5.86007)
(2.37018e-17 30.0044 17.9588)
(1.06554e-15 3.25997 19.3554)
(4.355e-15 -24.8399 4.6334)
(5.33202e-15 -33.2426 1.55386)
(4.62118e-15 -37.9391 -2.14395)
(4.72505e-15 -44.4786 -5.68146)
(8.59765e-15 -39.9557 -9.58704)
(1.3608e-14 -34.871 -15.7041)
(1.68149e-14 -27.2914 -21.5243)
(1.79618e-14 -19.5297 -25.9367)
(1.79177e-14 -12.0291 -28.0406)
(1.94e-14 -4.39246 -28.1179)
(1.32336e-14 6.94744 -23.1908)
(2.70123e-15 -32.2088 28.8227)
(7.97224e-15 -39.0775 29.0569)
(1.06814e-14 -34.1846 28.616)
(1.23595e-14 -9.48375 19.4308)
(7.74879e-15 29.6 8.74221)
(1.22759e-15 34.129 19.6368)
(-9.67793e-17 27.8467 30.0857)
(2.00647e-15 7.72204 29.3688)
(3.55105e-15 -20.0517 12.2093)
(4.80205e-15 -31.2433 3.60582)
(4.64113e-15 -35.6817 0.251666)
(4.73892e-15 -42.7464 -3.01898)
(8.41746e-15 -37.9777 -6.66165)
(1.32047e-14 -32.5998 -13.9036)
(1.64366e-14 -25.3022 -20.8396)
(1.78249e-14 -18.3105 -26.7137)
(1.78853e-14 -11.5818 -29.8357)
(1.91064e-14 -5.19616 -29.9701)
(1.47004e-14 5.67788 -24.2462)
(3.44563e-15 -32.3878 30.1774)
(8.56099e-15 -39.0787 30.8064)
(1.11868e-14 -32.8502 30.8961)
(1.14335e-14 -4.8855 22.3502)
(3.79223e-15 28.4405 20.8327)
(-4.19224e-16 30.2783 35.1243)
(1.12192e-15 26.0633 43.6802)
(3.43988e-15 11.7885 42.4425)
(3.26359e-15 -13.6823 23.1599)
(3.46288e-15 -27.0205 6.95327)
(3.8293e-15 -35.9191 -0.489492)
(4.68151e-15 -42.5275 0.575222)
(8.41646e-15 -35.6048 -2.5981)
(1.29627e-14 -29.7319 -10.8976)
(1.60966e-14 -22.4612 -19.1327)
(1.76503e-14 -16.2291 -26.8058)
(1.78332e-14 -10.9734 -31.3882)
(1.92804e-14 -7.43474 -31.4184)
(1.24873e-14 2.32756 -27.1931)
(4.23002e-15 -32.6359 31.5803)
(9.19352e-15 -39.2272 32.5846)
(1.15595e-14 -31.8628 33.2642)
(9.54112e-15 -3.19543 28.4604)
(1.28831e-15 23.7376 36.5721)
(4.52456e-16 25.4481 52.0922)
(3.93274e-15 24.7706 59.7454)
(6.13369e-15 15.5176 58.8981)
(4.87414e-15 -7.59152 41.6347)
(3.77521e-15 -22.822 23.042)
(4.38689e-15 -32.6546 17.9745)
(4.45233e-15 -41.4477 4.85459)
(8.63241e-15 -33.208 4.05101)
(1.3017e-14 -26.1644 -6.56824)
(1.59001e-14 -18.7892 -15.8625)
(1.74409e-14 -13.371 -25.4545)
(1.76776e-14 -9.33985 -32.5777)
(1.94968e-14 -5.83073 -32.6018)
(1.16376e-14 3.66121 -32.1482)
(5.03296e-15 -32.9539 32.7326)
(9.86257e-15 -39.6466 34.187)
(1.17038e-14 -31.9514 35.7744)
(7.84184e-15 -4.93125 37.4177)
(1.0545e-15 18.0682 53.4847)
(3.11041e-15 20.921 69.3657)
(7.5422e-15 23.5197 78.2096)
(9.78936e-15 19.0615 78.4238)
(8.27323e-15 0.484873 61.3244)
(5.94926e-15 -15.3709 42.3494)
(5.63181e-15 -27.9275 37.1745)
(4.89066e-15 -38.2801 18.4093)
(9.19386e-15 -30.3794 11.8766)
(1.34438e-14 -21.8584 0.497786)
(1.58313e-14 -14.7319 -9.51581)
(1.68391e-14 -9.57629 -19.5287)
(1.74702e-14 -8.96988 -30.6465)
(1.89762e-14 -10.4543 -29.745)
(1.64763e-14 -1.52287 -41.2491)
(5.80966e-15 -33.3786 33.3141)
(1.05528e-14 -40.4118 35.4804)
(1.17413e-14 -33.4898 38.2647)
(7.32251e-15 -9.76083 46.3347)
(2.60137e-15 10.7709 68.6834)
(6.19727e-15 15.517 85.5029)
(1.06413e-14 21.3079 97.4612)
(1.34252e-14 21.7703 101.947)
(1.28042e-14 6.93552 87.3283)
(8.23959e-15 -12.9746 61.1377)
(6.60712e-15 -24.2348 50.2245)
(6.84283e-15 -31.2546 32.7288)
(1.05905e-14 -26.1252 20.4949)
(1.43249e-14 -17.8268 11.3484)
(1.53954e-14 -10.5978 2.33234)
(1.41086e-14 -4.35507 -3.96937)
(1.38427e-14 -2.3532 -14.0259)
(1.63119e-14 3.37777 -28.1745)
(2.08407e-14 15.1845 -20.2183)
(6.46236e-15 -33.9786 33.1011)
(1.12581e-14 -41.6166 36.3439)
(1.1846e-14 -36.4092 40.3377)
(7.73885e-15 -16.9153 52.6756)
(4.56915e-15 2.47084 79.2148)
(7.88152e-15 9.21761 97.5002)
(1.08548e-14 17.2253 111.85)
(1.36866e-14 22.8486 121.697)
(1.64479e-14 16.5598 115.352)
(1.56457e-14 -1.48646 87.2696)
(1.14837e-14 -17.2246 63.0629)
(1.08601e-14 -25.5526 47.091)
(1.32686e-14 -21.6868 32.2773)
(1.50446e-14 -14.714 26.3218)
(1.27472e-14 -8.70382 24.0537)
(7.34828e-15 -4.15956 31.9162)
(5.49395e-15 -4.30882 46.0019)
(1.19632e-14 -14.2129 66.1274)
(2.08918e-14 -44.1886 100.58)
(6.87204e-15 -34.8332 32.0881)
(1.18825e-14 -43.2879 36.6539)
(1.2198e-14 -40.0806 41.5573)
(8.93134e-15 -25.1346 54.9895)
(5.62025e-15 -6.79913 82.4532)
(6.33318e-15 2.18646 103.431)
(6.65718e-15 11.7874 117.737)
(6.6484e-15 20.3079 128.939)
(9.80718e-15 20.8315 131.838)
(1.56311e-14 9.52069 117.144)
(1.88572e-14 -7.71709 88.1453)
(1.77948e-14 -18.6463 66.8162)
(1.66065e-14 -17.8248 53.5334)
(1.39291e-14 -14.5417 51.4119)
(8.26031e-15 -12.452 58.7873)
(2.02897e-15 -11.9611 74.8145)
(-1.88951e-15 -13.5148 93.5818)
(-2.30109e-15 -17.0613 105.915)
(-4.49364e-15 -20.0885 96.6142)
(7.05707e-15 -35.9624 30.603)
(1.23796e-14 -45.3714 36.4006)
(1.28159e-14 -43.8449 41.8892)
(8.95887e-15 -33.2405 54.5247)
(2.03516e-15 -16.7034 81.0384)
(7.03505e-16 -5.07006 103.761)
(1.055e-16 7.13905 114.166)
(-4.19144e-15 17.2375 119.252)
(-3.21858e-15 20.9906 124.275)
(4.63493e-16 15.3295 125.377)
(3.79466e-15 1.53488 114.897)
(4.82849e-15 -11.5498 97.036)
(6.65762e-15 -15.5618 85.6713)
(1.15551e-15 -16.6535 82.9486)
(-2.81711e-15 -17.6506 87.2421)
(2.80194e-15 -17.8029 94.7673)
(-2.1323e-15 -16.9653 99.9212)
(-2.37571e-15 -15.6004 89.2061)
(1.60668e-15 -13.0677 49.1201)
(7.29538e-15 -37.3092 29.4097)
(1.26427e-14 -47.7545 35.8111)
(1.35234e-14 -47.4076 41.5018)
(8.86033e-15 -40.6607 52.3544)
(-2.338e-15 -26.2716 75.9106)
(-1.15262e-14 -11.0397 95.5454)
(-1.64828e-14 5.64036 95.1886)
(-9.42492e-15 16.3129 89.0273)
(-8.53268e-15 18.6059 91.3659)
(-5.46239e-15 13.6567 101.127)
(-5.4168e-16 3.54542 109.284)
(2.1628e-15 -6.97265 107.073)
(2.79719e-15 -12.3055 100.75)
(2.70647e-15 -15.4378 97.8759)
(3.24587e-15 -17.7231 97.6562)
(4.46512e-15 -17.3298 99.9304)
(2.64545e-15 -11.0783 98.7683)
(3.71597e-15 0.63135 84.0881)
(5.76916e-15 11.0323 48.7107)
(8.08713e-15 -38.6573 29.6535)
(1.26743e-14 -50.155 35.4386)
(1.40359e-14 -50.5398 40.7559)
(9.24413e-15 -46.844 49.3671)
(-2.15988e-15 -33.9671 68.5985)
(-8.6844e-15 -12.9283 80.5977)
(-7.33043e-15 9.49521 64.0538)
(-6.14881e-15 18.6623 50.0978)
(-5.74011e-15 16.0345 53.8722)
(-6.61414e-15 8.28584 67.9378)
(-4.73195e-15 -0.707651 83.8818)
(-1.44686e-15 -7.88883 91.1729)
(1.00826e-15 -11.8807 92.7568)
(3.69355e-15 -15.3447 96.3867)
(5.67519e-15 -18.3959 101.388)
(5.94831e-15 -18.3542 107.822)
(3.95798e-15 -10.829 114.013)
(-6.95685e-16 1.99613 113.73)
(-3.30694e-15 17.7654 99.7908)
(9.89184e-15 -39.747 32.546)
(1.27237e-14 -52.1681 36.1137)
(1.4311e-14 -53.0677 40.2918)
(1.02295e-14 -51.5547 46.3946)
(2.62729e-16 -38.9709 60.7698)
(-6.21855e-15 -9.63909 63.3217)
(-8.97196e-15 17.3093 35.0101)
(-9.60099e-15 20.73 23.031)
(-5.43816e-15 11.6242 30.799)
(-5.0408e-15 1.90886 45.7002)
(-6.4175e-15 -5.7092 59.603)
(-4.5653e-15 -10.6013 67.563)
(-1.57419e-15 -14.4397 73.0839)
(2.0623e-15 -18.7009 79.2354)
(5.08706e-15 -22.1876 87.5446)
(3.3111e-15 -22.1104 93.7812)
(-7.62607e-15 -12.372 91.1048)
(-2.44756e-14 6.90018 83.9343)
(-3.51116e-14 39.7784 96.77)
(1.27044e-14 -40.1418 38.5279)
(1.31722e-14 -53.2375 38.6373)
(1.45208e-14 -54.7163 40.9066)
(1.15832e-14 -54.6541 44.1472)
(3.21148e-15 -41.1863 53.4934)
(-6.7149e-15 -2.45147 46.957)
(-1.60553e-14 25.0395 17.4373)
(-1.73877e-14 21.0039 16.5319)
(-1.02648e-14 7.06603 21.3691)
(-4.56254e-15 -3.25824 31.8589)
(-6.42924e-15 -9.30981 40.1951)
(-6.31042e-15 -13.3036 45.0174)
(-4.12999e-15 -16.8384 51.5021)
(-7.1069e-16 -21.2714 56.0158)
(2.82611e-15 -23.9052 60.7949)
(2.26549e-15 -19.4751 58.1714)
(-3.48534e-15 -6.25606 34.898)
(-5.35154e-15 1.38177 4.41952)
(-1.12309e-14 -4.22533 -8.91299)
(1.5943e-14 -39.8459 46.7804)
(1.43648e-14 -53.189 42.7606)
(1.51078e-14 -55.3734 42.764)
(1.32481e-14 -56.1485 42.9502)
(5.91073e-15 -40.7542 47.1912)
(-9.02975e-15 6.09295 32.1669)
(-1.9711e-14 29.0213 9.18676)
(-1.8147e-14 19.5323 20.7369)
(-1.32162e-14 5.33891 17.9782)
(-5.77696e-15 -5.70691 22.422)
(-5.96624e-15 -11.3192 27.8517)
(-6.95596e-15 -14.9567 30.2189)
(-5.91705e-15 -18.5092 34.1847)
(-3.57038e-15 -22.1585 34.546)
(-5.5146e-16 -22.8692 32.6991)
(2.41307e-16 -12.9378 24.9126)
(-2.80287e-15 6.10851 6.09682)
(-4.6398e-15 16.8322 -2.2707)
(-3.28887e-15 12.2427 -22.7243)
(1.88767e-14 -38.4157 57.0336)
(1.6542e-14 -51.6607 48.5896)
(1.65638e-14 -54.7896 46.5674)
(1.52032e-14 -55.8924 44.0115)
(7.7294e-15 -37.6483 42.5189)
(-1.17949e-14 13.0998 19.6919)
(-1.99115e-14 29.4816 8.06628)
(-1.64062e-14 17.6535 21.9563)
(-1.40943e-14 6.41143 14.4791)
(-8.54549e-15 -6.99936 14.8551)
(-6.15634e-15 -12.5583 18.4156)
(-7.28211e-15 -15.783 20.8717)
(-7.13116e-15 -18.7935 21.5345)
(-5.78121e-15 -20.8853 19.1455)
(-3.9031e-15 -19.9962 12.8307)
(-2.76877e-15 -8.64046 4.47795)
(-4.19624e-15 7.15595 -6.73728)
(-5.86154e-15 17.1806 -8.05154)
(-3.45223e-15 11.573 -17.0667)
(2.03866e-14 -36.4374 73.0803)
(1.89401e-14 -49.2296 59.9662)
(1.82976e-14 -53.7213 55.3909)
(1.64825e-14 -54.2875 49.0415)
(7.27167e-15 -31.4917 38.7308)
(-1.56285e-14 18.6732 8.32757)
(-1.87755e-14 28.2574 11.6431)
(-1.66001e-14 16.9972 18.339)
(-1.55484e-14 8.63567 11.2555)
(-1.19245e-14 -7.21953 8.83691)
(-8.01332e-15 -13.6772 10.4507)
(-7.81013e-15 -16.3274 12.6772)
(-8.13421e-15 -17.9312 11.9151)
(-7.30617e-15 -18.7358 9.06738)
(-6.34146e-15 -16.9196 1.484)
(-5.36654e-15 -5.48009 -5.70901)
(-6.52274e-15 9.66427 -13.6905)
(-7.27549e-15 19.0246 -10.9869)
(-4.73392e-15 14.9557 -12.2758)
(1.81569e-14 -32.7974 91.8485)
(1.84749e-14 -44.5153 76.0018)
(1.75289e-14 -50.1346 67.3547)
(1.46742e-14 -48.6717 54.967)
(3.15526e-15 -21.1503 33.1394)
(-1.87736e-14 22.7941 1.01482)
(-1.79313e-14 26.0153 14.0279)
(-1.71781e-14 17.5932 14.1126)
(-1.63877e-14 10.7089 9.22732)
(-1.45719e-14 -6.81596 3.73667)
(-1.10594e-14 -14.0254 4.15665)
(-9.1685e-15 -16.3241 5.67508)
(-9.32533e-15 -17.179 4.24751)
(-8.64154e-15 -16.568 2.20484)
(-8.12961e-15 -13.9983 -4.59415)
(-7.27109e-15 -2.83336 -10.8954)
(-9.43542e-15 9.96296 -15.5154)
(-7.70788e-15 16.9799 -10.3953)
(-3.77174e-15 13.4958 -9.52778)
(1.17463e-14 -30.201 101.563)
(1.37912e-14 -40.1796 85.8608)
(1.31154e-14 -45.9226 73.9535)
(9.17933e-15 -41.4361 54.552)
(-3.74104e-15 -9.41254 22.4448)
(-1.88516e-14 25.8538 1.5038)
(-1.78778e-14 24.0184 12.5314)
(-1.72492e-14 18.5823 11.1578)
(-1.63529e-14 12.6286 7.64955)
(-1.55275e-14 -7.4039 0.270635)
(-1.37471e-14 -14.8168 -1.04987)
(-1.16411e-14 -16.4876 -0.424339)
(-1.12226e-14 -16.7246 -2.27692)
(-1.06016e-14 -15.1931 -3.71557)
(-9.99584e-15 -11.6681 -8.12359)
(-9.31392e-15 -0.868169 -12.9129)
(-1.09411e-14 9.53676 -13.8215)
(-7.09966e-15 16.197 -9.03251)
(-2.77802e-15 13.7781 -8.25529)
(-2.2944e-15 -25.8974 81.5268)
(7.97029e-16 -32.7668 70.0937)
(1.34832e-15 -36.1942 60.5018)
(-1.66093e-15 -26.4032 41.5301)
(-1.17224e-14 3.37935 12.0522)
(-1.80075e-14 25.2262 4.59171)
(-1.79808e-14 22.59 9.80228)
(-1.7303e-14 19.524 9.33521)
(-1.63903e-14 15.7375 6.51553)
(-1.56602e-14 -2.22408 0.524778)
(-1.49305e-14 -13.4169 -3.88658)
(-1.39898e-14 -15.4999 -5.26023)
(-1.34774e-14 -15.6992 -7.07092)
(-1.30485e-14 -14.0724 -8.36648)
(-1.23436e-14 -10.2635 -10.2444)
(-1.17444e-14 -0.256213 -12.0389)
(-1.14173e-14 8.16242 -12.1126)
(-6.33874e-15 14.6429 -8.59186)
(-2.37415e-15 11.3972 -8.76608)
(-5.13005e-16 123.958 212.597)
(1.58482e-14 182.26 296.568)
(1.90883e-14 183.595 297.662)
(2.01677e-14 178.013 281.042)
(2.12746e-14 169.017 263.803)
(2.13602e-14 161.026 245.272)
(2.12262e-14 150.747 226.891)
(2.43073e-14 140.121 207.618)
(2.97633e-14 128.363 187.147)
(3.57284e-14 116.031 166.795)
(4.31996e-14 103.246 146.644)
(5.05232e-14 89.9275 126.604)
(5.68073e-14 76.0248 106.657)
(6.26498e-14 61.5133 86.6576)
(7.00677e-14 46.2512 66.7834)
(7.6474e-14 30.9779 47.3872)
(7.13294e-14 15.3945 28.8291)
(4.48137e-14 3.47652 10.6027)
(3.58161e-15 -10.8651 -4.09489)
(-4.51175e-14 -8.41039 -17.5633)
(1.77693e-17 138.849 244.165)
(6.52164e-15 159.388 273.653)
(6.38916e-15 142.652 257.158)
(9.29003e-15 132.155 241.668)
(1.06807e-14 120.132 228.612)
(1.08143e-14 109.293 214.641)
(1.41741e-14 96.2665 197.977)
(2.33552e-14 82.3611 178.849)
(3.6605e-14 67.442 158.346)
(5.32287e-14 52.0409 136.747)
(7.29617e-14 36.1587 114.628)
(8.96537e-14 20.1644 92.256)
(1.0319e-13 3.98579 69.3649)
(1.21139e-13 -12.2601 45.5201)
(1.52768e-13 -26.7047 23.0678)
(1.67385e-13 -34.3104 9.07287)
(1.25115e-13 -28.8219 12.2882)
(6.40851e-14 -7.69674 35.0854)
(3.63236e-14 20.3421 63.22)
(1.88087e-14 26.5161 59.3655)
(-4.27152e-16 118.744 210.821)
(-9.62812e-15 133.258 241.656)
(-6.86161e-15 127.516 236.003)
(-5.76357e-15 117.307 222.771)
(-6.76967e-15 105.286 206.272)
(-6.62967e-15 92.7808 190.535)
(-3.79362e-15 79.9043 173.952)
(8.87915e-17 66.1242 155.641)
(6.88249e-15 51.7152 135.6)
(1.67592e-14 37.0663 114.542)
(2.65969e-14 22.9664 93.7116)
(2.91165e-14 10.53 74.9129)
(1.61031e-14 1.08207 60.0285)
(-1.02997e-14 -3.331 51.7125)
(-3.51359e-14 1.12922 55.2622)
(-4.23755e-14 18.3122 76.5879)
(-3.10632e-14 46.919 114.338)
(-1.13897e-14 77.2276 154.305)
(4.22675e-15 95.9106 171.601)
(6.26455e-15 70.9164 133.647)
(-6.75166e-17 105.075 180.465)
(8.93798e-17 131.823 232.77)
(3.05801e-17 131.028 226.216)
(-2.93017e-16 121.019 210.711)
(-3.30295e-16 110.451 190.165)
(-6.40563e-15 99.1633 171.369)
(-4.31186e-15 90.062 155.253)
(-5.09074e-15 81.461 140.269)
(-4.77611e-15 73.3483 124.959)
(-4.29916e-15 65.6486 109.403)
(-3.36511e-15 58.7798 94.1727)
(-3.62709e-15 53.255 80.6287)
(-7.0271e-15 50.7332 71.732)
(-8.32278e-15 52.7357 70.9173)
(-1.32953e-14 60.5813 80.5191)
(-1.15023e-14 72.6556 99.7881)
(-5.56743e-15 86.5644 123.662)
(2.92549e-15 94.7028 144.452)
(7.28245e-15 93.0685 146.78)
(-8.51371e-16 67.6286 117.641)
(3.50615e-17 105.905 180.658)
(1.57051e-16 140.512 244.052)
(1.37175e-16 141.513 239.696)
(2.09369e-16 132.854 224.374)
(2.64972e-16 123.267 204.722)
(4.4132e-16 113.265 185.578)
(1.75311e-16 105.584 169.97)
(-9.92919e-17 99.6583 157.314)
(-5.52393e-16 94.7043 146.047)
(-1.19864e-15 90.2529 135.125)
(-1.94849e-15 86.0364 124.059)
(-2.75788e-15 81.8253 112.491)
(-4.06055e-15 77.5782 100.567)
(-6.41959e-15 73.5224 89.5768)
(-9.15387e-15 70.5356 81.9591)
(-1.01919e-14 69.3737 80.5584)
(-7.2286e-15 69.9515 85.6949)
(-1.5657e-15 69.8873 93.306)
(1.28211e-15 63.7914 93.7459)
(-9.18975e-16 42.6983 66.4864)
(-9.15028e-18 108.522 183.86)
(-4.37015e-17 149.755 256.942)
(-4.11251e-17 148.841 250.189)
(-4.99578e-17 138.802 231.932)
(-5.80946e-17 128.001 211.592)
(-4.32424e-17 118.135 192.814)
(2.17787e-17 110.26 177.59)
(1.0755e-16 103.837 164.486)
(2.18385e-16 97.8684 152.576)
(3.23083e-16 92.2078 141.255)
(3.95497e-16 86.7042 130.483)
(5.19648e-16 81.4082 120.165)
(8.86051e-16 76.1914 110.077)
(1.5995e-15 70.9894 99.8887)
(2.51301e-15 65.5215 89.6255)
(3.2354e-15 60.1103 79.729)
(3.32872e-15 54.1247 71.3461)
(2.58047e-15 48.1471 63.5392)
(1.17394e-15 36.8885 53.0984)
(2.83098e-16 16.4826 18.2628)
(2.07243e-18 116.363 196.664)
(9.49889e-18 160.196 271.525)
(9.42259e-18 154.65 259.198)
(9.20476e-18 143.247 237.669)
(5.48954e-18 131.706 217.24)
(-5.00089e-18 122.742 199.249)
(-2.19303e-17 115.235 184.955)
(-4.32696e-17 108.996 171.676)
(-6.54251e-17 102.669 158.957)
(-7.42971e-17 96.3768 146.222)
(-6.35698e-17 89.8705 133.652)
(-6.33893e-17 83.2356 121.3)
(-1.28756e-16 76.4045 109.317)
(-2.81818e-16 69.5034 97.6404)
(-4.78112e-16 62.1835 86.1836)
(-6.41093e-16 54.6672 74.2811)
(-7.26767e-16 45.5711 61.7072)
(-7.71071e-16 35.9258 46.572)
(-8.11553e-16 19.0588 26.0176)
(-8.37761e-16 1.70798 -9.20494)
(-3.92357e-19 130.788 221.86)
(-1.69912e-18 171.333 285.871)
(-1.59926e-18 159.217 267.018)
(-1.15525e-18 148.472 243.796)
(7.4248e-19 137.302 225.584)
(5.12553e-18 130.676 209.313)
(9.06544e-18 123.928 196.308)
(1.26124e-17 118.659 183.012)
(1.51704e-17 112.519 169.699)
(1.34899e-17 106.031 155.374)
(6.33575e-18 98.6244 140.415)
(4.19593e-19 90.5318 124.918)
(7.55812e-18 81.7363 109.25)
(3.24999e-17 72.4673 93.5319)
(6.54657e-17 62.4249 77.9481)
(8.8502e-17 51.9407 61.9646)
(8.85221e-17 39.4136 45.2995)
(5.37873e-17 26.392 25.3288)
(1.35591e-17 3.91284 -0.379144)
(-5.77669e-16 -11.4609 -38.0034)
(5.69429e-20 148.923 258.61)
(2.05011e-19 177.858 294.688)
(1.2203e-19 158.917 272.619)
(-8.02623e-21 151.675 251.362)
(-4.67712e-19 140.982 237.844)
(-1.62146e-18 137.486 224.397)
(-2.32324e-18 131.278 214.148)
(-2.57795e-18 127.464 201.711)
(-2.3692e-18 120.794 187.989)
(-1.15038e-18 113.162 171.059)
(1.20082e-18 103.288 152.438)
(3.34508e-18 92.4472 132.625)
(3.05561e-18 80.5462 112.457)
(-7.65846e-19 67.9137 91.816)
(-6.69305e-18 54.0244 70.753)
(-1.02581e-17 39.2491 48.7736)
(-3.39606e-18 22.3727 26.368)
(1.56665e-17 6.40674 0.74152)
(1.10298e-16 -20.1812 -26.8773)
(-3.5019e-16 -26.7063 -67.4889)
(-4.81232e-21 157.612 282.325)
(1.36093e-21 169.343 284.543)
(3.27558e-20 148.511 267.589)
(6.08792e-20 144.592 250.663)
(1.69438e-19 132.976 241.646)
(4.23753e-19 130.376 230.998)
(4.78995e-19 122.749 223.876)
(3.9805e-19 117.952 212.224)
(1.92009e-19 107.207 196.854)
(-2.55931e-19 94.974 175.104)
(-9.05424e-19 79.4134 151.172)
(-1.23022e-18 63.9708 126.228)
(-9.48619e-19 47.6558 101.292)
(-2.18734e-18 30.8417 75.14)
(-7.26366e-18 12.936 47.6196)
(-5.88692e-18 -5.08797 19.7215)
(2.88659e-17 -20.4646 -4.94876)
(8.71031e-17 -32.7967 -27.7393)
(6.86901e-17 -44.7548 -49.6776)
(-9.5108e-17 -27.9854 -44.8187)
(-1.92692e-21 148.558 270.16)
(-1.44328e-20 153.96 263.701)
(-2.49985e-20 135.307 250.074)
(-3.39066e-20 130.269 234.162)
(-5.38125e-20 117.972 225.744)
(-6.73356e-20 113.018 215.517)
(-2.61111e-20 103.454 208.277)
(4.14737e-20 95.0259 196.028)
(1.6742e-19 80.7747 178.716)
(3.95327e-19 64.6807 155.077)
(7.22716e-19 46.5309 129.805)
(1.04669e-18 29.2147 104.661)
(7.8633e-20 12.0138 80.2595)
(-5.24582e-18 -4.33339 56.2345)
(-1.13138e-17 -18.6444 34.1159)
(3.33441e-18 -27.8891 16.9182)
(5.4608e-17 -27.4721 10.9437)
(1.07352e-16 -11.8675 23.5405)
(9.86466e-17 16.2596 52.3964)
(2.51612e-17 28.8904 65.5827)
(1.46759e-21 135.94 247.209)
(7.18784e-21 148.769 251.893)
(1.09538e-20 126.902 232.864)
(1.28106e-20 122.575 213.164)
(8.75063e-21 108.171 203.428)
(-1.0163e-20 103.037 189.077)
(-4.66901e-20 91.2974 179.531)
(-9.81932e-20 82.9019 165.799)
(-1.48708e-19 69.4932 150.031)
(-1.30678e-19 56.0048 129.018)
(2.94475e-20 40.9763 106.285)
(1.98589e-19 27.4604 83.3164)
(-2.50865e-19 15.8176 62.8437)
(-2.06765e-18 8.75533 48.3691)
(-4.39741e-18 9.76216 46.2478)
(-4.51695e-18 21.909 61.3033)
(-2.64222e-18 43.1492 90.3389)
(-4.36317e-18 65.2917 120.845)
(-1.09339e-17 79.1602 134.233)
(-9.79077e-18 58.2721 107.851)
(-5.54506e-22 133.731 243.151)
(-2.46983e-21 154.83 254.087)
(-3.57658e-21 129.337 232.923)
(-3.8736e-21 128.613 209.064)
(-1.05184e-21 112.893 199.172)
(7.33543e-21 110.465 180.909)
(1.80441e-20 98.3118 169.258)
(2.81425e-20 93.0054 153.967)
(3.46112e-20 83.8342 141.894)
(3.73785e-20 77.7525 128.606)
(4.27262e-20 70.9949 116.249)
(4.19162e-20 66.0195 103.979)
(1.27895e-20 62.0315 92.8542)
(-3.61398e-20 59.7472 83.567)
(-6.37947e-20 59.5697 77.6839)
(-2.05181e-22 61.3176 77.3445)
(1.34813e-19 64.7049 82.3313)
(4.50137e-20 65.7875 89.6617)
(-1.97579e-19 61.2424 89.444)
(6.45328e-19 41.2832 67.701)
(1.79809e-22 137.559 251.209)
(7.65844e-22 161.514 261.57)
(1.08078e-21 133.578 240.753)
(1.14153e-21 134.813 216.858)
(1.37559e-22 119.37 207.217)
(-2.64427e-21 117.748 189.858)
(-5.63561e-21 107.473 178.268)
(-7.35529e-21 102.732 163.755)
(-6.77542e-21 95.5398 151.472)
(-5.18914e-21 90.1058 139.147)
(-7.92549e-21 84.6765 127.941)
(-1.60338e-20 79.8292 117.307)
(-1.63864e-20 75.1539 107.06)
(9.10742e-21 70.4982 96.9522)
(6.55701e-20 65.5589 86.9643)
(1.40388e-19 60.3972 77.3139)
(2.17199e-19 54.1889 68.4218)
(3.28778e-19 47.2455 59.433)
(6.2102e-19 34.961 47.3285)
(1.09081e-18 15.6668 17.3861)
(-5.27411e-23 142.939 264.419)
(-2.22229e-22 165.229 263.433)
(-3.07577e-22 134.925 246.874)
(-3.23913e-22 139.882 223.351)
(-3.45735e-23 122.425 214.589)
(7.70438e-22 122.238 196.873)
(1.58847e-21 111.279 185.906)
(1.97951e-21 107.173 171.576)
(1.80088e-21 99.8353 159.595)
(1.53129e-21 94.308 146.851)
(2.33302e-21 88.2545 134.759)
(4.24109e-21 82.5611 122.73)
(4.13121e-21 76.719 110.912)
(-2.44919e-21 70.7273 98.9039)
(-1.68906e-20 63.8487 86.4816)
(-3.59954e-20 56.1 72.8139)
(-5.55466e-20 45.6086 57.523)
(-8.04282e-20 33.7885 38.6897)
(-1.76726e-19 13.9849 15.1394)
(-9.65061e-20 -1.91243 -20.0695)
(1.49204e-23 147.232 279.15)
(6.00708e-23 166.738 262.428)
(7.76693e-23 135.67 253.47)
(8.02534e-23 144.215 230.418)
(1.17953e-23 124.725 222.891)
(-1.7821e-22 126.159 205.268)
(-3.46403e-22 114.455 195.173)
(-3.55519e-22 111.328 181.275)
(-1.73735e-22 104.026 170.192)
(3.46473e-23 99.3908 158.257)
(-4.82266e-23 93.981 147.113)
(-4.70363e-22 89.0162 135.447)
(-7.0956e-22 83.3042 122.921)
(-1.82733e-22 76.4289 108.329)
(9.86959e-22 66.9222 90.8163)
(1.88314e-21 54.457 69.2134)
(1.06295e-21 38.0376 45.7827)
(-3.92986e-21 21.3442 19.8893)
(-5.47599e-21 -5.83469 -10.156)
(-3.02485e-19 -18.4524 -49.2652)
(-3.97525e-24 145.12 282.786)
(-1.60671e-23 163.495 256.907)
(-2.1296e-23 132.243 253.615)
(-2.33701e-23 141.28 231.617)
(-8.43995e-24 121.701 224.796)
(3.75797e-23 122.445 208.722)
(9.3986e-23 111.156 199.49)
(1.83089e-22 107.881 187.127)
(3.56867e-22 100.825 177.422)
(6.07065e-22 96.5783 167.145)
(7.38494e-22 91.4506 157.615)
(2.58985e-22 86.5696 147.036)
(-1.49468e-21 80.0463 134.136)
(-4.71904e-21 70.553 116.112)
(-8.13948e-21 55.354 89.7841)
(-9.60435e-21 33.8294 53.9724)
(-9.83749e-21 10.063 19.4485)
(-9.08117e-22 -4.49839 -6.3664)
(-2.60169e-20 -26.9754 -31.5192)
(-2.7433e-19 -28.4264 -65.1244)
(1.26048e-24 133.744 273.264)
(4.14359e-24 157.402 248.288)
(4.15446e-24 122.048 246.192)
(-1.63347e-25 128.881 226.6)
(-1.64611e-23 110.97 219.448)
(-3.91021e-23 108.021 206.037)
(-2.77495e-23 98.1768 196.735)
(6.9252e-23 92.6475 186.137)
(2.65293e-22 85.8867 176.959)
(4.63975e-22 80.4792 167.87)
(4.09379e-22 74.8749 158.96)
(-3.10011e-22 68.9263 148.705)
(-2.11576e-21 61.0487 134.92)
(-4.72451e-21 49.2016 113.63)
(-6.34092e-21 30.6016 79.825)
(-7.23181e-21 6.31367 34.2933)
(-1.7525e-20 -13.6715 -6.59589)
(-4.81863e-20 -23.6745 -28.0059)
(-9.44712e-20 -30.8942 -40.4204)
(-1.48258e-19 -23.8604 -39.7594)
(-3.0678e-25 108.41 253.472)
(-9.1468e-25 147.231 224.769)
(-1.34312e-24 107.107 227.788)
(-3.89401e-24 112.653 212.955)
(-1.16881e-23 96.5178 207.475)
(-2.36398e-23 91.3808 198.155)
(-2.10422e-23 82.1397 190.941)
(3.31609e-23 75.5054 183.135)
(1.62722e-22 68.5016 175.91)
(3.28408e-22 62.3686 168.745)
(4.03637e-22 56.4226 161.655)
(2.22394e-22 50.6017 153.961)
(-3.22527e-22 44.4076 144.736)
(-1.27427e-21 37.6253 132.968)
(-2.78968e-21 30.5593 118.04)
(-5.25036e-21 24.1465 99.8057)
(-9.1977e-21 18.865 78.8291)
(-1.53082e-20 13.8462 55.0916)
(-2.32807e-20 6.45103 25.3351)
(-2.4014e-20 -3.39417 -4.1415)
(1.17941e-25 35.5788 157.457)
(2.51294e-25 78.2953 129.991)
(8.6856e-26 52.6631 138.076)
(-9.74055e-25 52.6641 133.942)
(-4.16865e-24 44.2715 133.872)
(-1.05751e-23 39.9839 132.173)
(-1.78862e-23 35.0392 130.837)
(-1.54608e-23 31.1761 129.143)
(1.75304e-23 27.7171 127.352)
(1.05352e-22 24.9351 125.453)
(2.6195e-22 22.7925 123.604)
(4.76479e-22 21.3966 121.918)
(7.05902e-22 20.7754 120.404)
(8.902e-22 20.9159 118.851)
(1.00462e-21 21.8702 116.764)
(1.10835e-21 23.4935 113.714)
(1.28593e-21 25.3608 109.573)
(1.46013e-21 29.6011 102.268)
(1.29774e-21 32.6489 88.9797)
(5.33511e-22 7.30595 65.8163)
(-3.97972e-26 -35.5696 157.442)
(1.22602e-26 -78.2975 129.967)
(2.71942e-25 -52.6641 138.047)
(9.56065e-25 -52.671 133.908)
(1.84197e-24 -44.2828 133.832)
(1.81439e-24 -40.0008 132.127)
(-4.20122e-25 -35.0621 130.785)
(-3.1858e-24 -31.2061 129.084)
(1.96742e-24 -27.7561 127.289)
(2.90979e-23 -24.9856 125.388)
(8.8393e-23 -22.8564 123.539)
(1.78167e-22 -21.4729 121.849)
(2.95661e-22 -20.8581 120.317)
(4.58839e-22 -20.9929 118.723)
(6.91975e-22 -21.9256 116.579)
(9.54148e-22 -23.5173 113.476)
(1.09295e-21 -25.3493 109.32)
(9.39769e-22 -29.5526 102.055)
(5.15495e-22 -32.5821 88.8372)
(8.98192e-23 -7.26844 65.7272)
(1.40568e-25 -108.366 253.412)
(1.50448e-25 -147.196 224.686)
(6.16984e-25 -107.068 227.709)
(1.46396e-24 -112.621 212.867)
(1.36466e-24 -96.4841 207.382)
(-5.21793e-25 -91.3491 198.055)
(-2.68466e-25 -82.1065 190.833)
(1.28113e-23 -75.4718 183.019)
(4.83115e-23 -68.4662 175.786)
(9.91025e-23 -62.3304 168.612)
(1.31972e-22 -56.3772 161.503)
(8.1326e-23 -50.5491 153.783)
(-1.86233e-22 -44.3678 144.552)
(-9.13203e-22 -37.6638 132.862)
(-2.36927e-21 -30.7915 118.148)
(-4.57161e-21 -24.6645 100.258)
(-6.86437e-21 -19.6185 79.693)
(-7.89641e-21 -14.6713 56.1888)
(-7.15461e-21 -7.19661 26.2808)
(-4.89195e-21 3.05172 -3.83533)
(-8.68297e-25 -133.675 273.143)
(-1.86477e-25 -157.315 248.2)
(1.08208e-24 -121.965 246.088)
(1.89097e-24 -128.779 226.508)
(-6.09835e-25 -110.863 219.358)
(-7.05231e-24 -107.893 205.954)
(-7.45128e-24 -98.0346 196.659)
(2.05036e-23 -92.4822 186.071)
(9.02272e-23 -85.7007 176.905)
(1.62589e-22 -80.2541 167.822)
(1.25297e-22 -74.5896 158.888)
(-1.4955e-22 -68.539 148.557)
(-7.74832e-22 -60.4991 134.59)
(-2.3375e-21 -48.3822 112.918)
(-6.89854e-21 -29.5476 78.727)
(-1.60554e-20 -5.64031 33.6944)
(-2.39717e-20 13.4035 -5.7009)
(-2.32162e-20 23.1645 -26.8221)
(-2.57076e-20 30.2263 -39.4743)
(-4.6492e-20 23.2648 -37.936)
(4.37089e-24 -145.138 282.765)
(2.40713e-24 -163.394 256.992)
(1.05867e-24 -132.257 253.668)
(-1.05644e-24 -141.156 231.766)
(-8.04871e-24 -121.666 224.926)
(-2.17295e-23 -122.308 208.928)
(-3.38577e-23 -111.052 199.703)
(-2.0286e-23 -107.726 187.401)