/*--------------------------------*- C++ -*----------------------------------*\
| =========                 |                                                 |
| \\      /  F ield         | OpenFOAM: The Open Source CFD Toolbox           |
|  \\    /   O peration     | Version:  4.1                                   |
|   \\  /    A nd           | Web:      www.OpenFOAM.org                      |
|    \\/     M anipulation  |                                                 |
\*---------------------------------------------------------------------------*/
FoamFile
{
    version     2.0;
    format      ascii;
    class       volScalarField;
    location    "10";
    object      p;
}
// * * * * * * * * * * * * * * * * * * * * * * * * * * * * * * * * * * * * * //

dimensions      [0 2 -2 0 0 0 0];

internalField   nonuniform List<scalar> 
1280
(
-3.5275
-0.128499
-0.59952
-1.34245
-0.716442
-0.736897
-1.04224
-1.00695
-0.764009
-0.791548
-1.18637
-0.906094
-1.03929
-1.6217
-1.39101
-2.03257
-2.97558
-2.86033
-3.95073
-7.60829
-4.66309
1.48473
7.15461
8.79734
10.3111
14.5077
1.13057
15.716
16.4725
18.5803
20.4151
22.1662
24.1309
26.0673
28.1937
30.058
32.5952
33.9651
39.235
35.9495
-24.9563
0.901447
5.15289
6.02758
10.8337
10.9634
11.5891
12.129
12.1686
11.9983
12.0309
13.0203
10.4715
9.1184
9.28902
14.9513
-5.88212
-10.9951
-12.9028
-15.6042
-10.2923
-11.145
-16.0248
-17.0002
-16.0155
-13.3969
-10.3926
-7.47014
-4.95435
-3.04001
-1.1478
0.21386
-0.388217
10.3104
31.1094
20.0132
8.59081
-3.26508
-15.473
-27.3494
-36.9959
-22.7115
-18.589
-19.5267
-14.4035
-11.3565
-12.7342
-9.51651
-8.18935
-9.19817
-7.10396
-6.40189
-7.07435
-6.80849
-5.46067
-5.16955
-6.70296
-3.82018
-2.62138
-13.0821
10551.7
-2374.12
-2185.71
242.652
-51.2836
1.16517
-26.0779
-24.0975
-7.50888
-1.47089
-0.475887
-2.42481
-0.914203
2.02777
0.752315
-2.3344
-4.47688
-4.99631
-5.71336
-5701.78
-561.016
-1271.83
-44.6358
18.7327
-0.548016
-10.6939
-6.36398
-2.11467
-0.896539
-0.588979
-1.77242
-0.652884
0.935509
-0.990354
-2.82444
-3.40037
-3.30789
-3.78927
424.949
-1000.32
316.781
87.3568
13.9201
-1.48499
-12.681
-1.89605
-1.21843
-2.2401
-2.32083
-3.42817
0.353606
2.09952
-1.5744
-4.27357
-3.30061
-2.15367
-1.90093
-1569.65
-1039.8
20.9694
44.9233
15.3387
-5.01765
-13.21
-6.73504
0.0812438
-3.51318
-7.07799
-8.26901
1.83429
4.21249
-3.68939
-7.24371
-4.94438
-3.10702
-2.30525
-225.558
-649.983
-169.686
1.57993
13.3227
-5.56181
-13.0467
-4.89891
9.0403
-0.332182
-12.9328
-13.6229
4.68044
7.05857
-6.71538
-12.0585
-6.90524
-3.25806
-2.30837
-260.778
-416.719
-96.8346
-35.418
27.573
-7.23893
-12.4646
-2.29895
17.9017
3.09534
-15.7599
-16.8305
8.23693
8.82545
-10.017
-13.9704
-8.35263
-2.29482
-1.52635
65.0399
-270.637
18.3532
-40.7062
43.041
-6.32748
-9.77686
-1.65703
21.2571
5.18511
-16.8399
-17.1048
11.4183
10.7758
-10.1023
-14.17
-8.47798
-1.41822
-2.49723
141.065
-154.977
104.383
-39.7011
52.9881
-4.19695
-4.8593
-1.32883
18.2154
6.79547
-17.0261
-17.1266
12.7447
11.8235
-6.87115
-14.5715
-8.62782
0.774447
-4.15657
206.95
-91.0437
147.19
-32.4856
57.4132
0.234045
1.64492
-0.243824
13.6103
4.60703
-16.8718
-16.7421
10.3271
10.5014
-0.895043
-8.96857
-5.77541
5.14402
29.5568
222.851
-57.3222
168.428
-19.4971
55.7318
6.34674
8.72244
1.34622
9.47534
2.56308
-13.0237
-14.2093
3.34089
4.72861
0.450308
-2.26688
3.81284
18.2072
33.0176
226.171
-48.8497
178.41
-6.73836
48.8168
13.2463
15.0136
2.48254
5.76531
1.14004
-8.26043
-10.4107
-1.15681
1.58613
1.20808
-1.12782
3.61111
20.1568
29.9239
215.333
-67.4009
178.285
-5.96201
39.4293
18.6563
18.7714
2.62111
2.80947
1.37565
-3.34444
-8.40052
-5.88622
-3.65204
0.458901
1.73821
5.66964
21.1582
36.6755
155.459
-119.537
148.837
-15.8946
29.3155
23.5129
19.3714
2.25231
0.712402
1.67933
-0.153806
-8.69638
-10.4035
-7.34454
0.392606
3.69852
2.54601
1.87433
0.342588
87.984
-226.729
85.5147
-32.7585
15.434
28.1336
18.1501
1.4825
-0.398645
1.48997
0.922472
-10.1514
-10.9938
-6.44039
0.826103
2.68138
0.405393
-1.37606
-3.39186
-224.116
-406.636
-36.4276
-54.0411
-4.33152
21.5793
16.9286
0.673092
-1.05916
1.01901
0.609591
-11.2044
-11.7962
-6.89372
0.238132
1.86409
0.691275
0.277695
0.353961
-148.924
-522.801
-145.847
-59.5801
-34.3877
1.94762
12.9926
-1.25516
-1.68659
0.0878007
0.387365
-9.65747
-12.1231
-5.97514
-0.0412465
0.958034
0.444052
-0.265042
-0.00162005
-1230.1
-870.169
-160.839
-21.9155
-48.0735
-17.2719
0.960392
-4.1071
-2.35946
-0.618392
-0.0252533
-7.35464
-10.952
-4.97406
-0.300813
0.435786
0.361843
-0.029674
0.152369
418.258
-984.072
199.856
13.0991
-50.2872
-15.4837
-3.89636
-4.59316
0.330349
0.119013
1.46111
-3.27373
-6.75992
-2.7296
0.151488
0.337744
0.309784
-0.00743615
0.0759819
-5636.85
-370.646
-1279.13
-78.8637
-33.5764
-36.6293
-0.433101
-2.78019
-1.10005
-2.03329
-3.07714
-2.57525
-4.48231
-3.3917
-1.2787
-0.373022
-0.1223
-0.36103
-0.378943
10353.1
-2204.71
-2181.23
131.071
-148.189
-71.7139
-0.328914
-0.297607
8.19785
4.7351
5.10875
0.285853
-3.87393
-5.54753
-3.16566
-1.41728
-0.817483
-0.916117
-1.02637
90.4489
89.5208
88.8505
87.9828
87.0229
85.9295
84.8583
83.8416
82.7874
81.806
80.9361
80.1354
79.4382
78.8172
78.3118
77.8687
77.5654
77.2818
77.2506
76.9725
74.7657
75.136
75.2675
75.4285
75.5647
75.6291
75.6786
75.6422
75.5938
75.4945
75.3822
75.2385
75.0918
74.9183
74.7581
74.5676
74.4117
74.2161
74.0464
73.8375
81.3577
81.1154
81.0079
80.8294
80.6938
80.5319
80.386
80.2308
80.0808
79.9219
79.7696
79.6078
79.4558
79.291
79.1436
78.9737
78.8378
78.654
78.542
78.2959
79.4832
79.474
79.4751
79.4521
79.4489
79.4196
79.4035
79.3686
79.3411
79.2997
79.263
79.2144
79.1719
79.1155
79.0717
79.0065
78.9676
78.8909
78.8633
78.7665
81.1347
81.04
81.0133
80.9406
80.9007
80.838
80.7923
80.7342
80.6856
80.6293
80.5798
80.5232
80.4744
80.4157
80.37
80.3063
80.268
80.1943
80.1722
80.0783
81.3692
81.3133
81.3025
81.2565
81.2364
81.1959
81.1702
81.1326
81.1036
81.0671
81.0365
80.9996
80.9694
80.9304
80.9029
80.8593
80.8382
80.7858
80.7781
80.713
82.1697
82.1012
82.0842
82.031
82.0044
81.9587
81.9276
81.886
81.8527
81.8134
81.7794
81.7408
81.7079
81.6681
81.6385
81.5949
81.572
81.5204
81.5104
81.4461
82.709
82.6488
82.634
82.5865
82.5633
82.5222
82.4946
82.4572
82.4272
82.3919
82.3609
82.3262
82.296
82.2601
82.2329
82.1932
82.1721
82.1247
82.1151
82.0553
83.3222
83.2619
83.246
83.1988
83.1748
83.134
83.1058
83.0688
83.0384
83.0035
82.9722
82.9382
82.9076
82.8726
82.8447
82.8062
82.7844
82.7383
82.7276
82.6687
83.8719
83.8149
83.7996
83.7549
83.7321
83.6933
83.6663
83.6311
83.6019
83.5689
83.5386
83.5065
83.4766
83.4438
83.4163
83.3801
83.3583
83.3147
83.3037
83.2471
84.4149
84.36
84.3449
84.3018
84.2794
84.242
84.2157
84.1817
84.1532
84.1215
84.0918
84.0612
84.0316
84.0006
83.9731
83.939
83.917
83.8756
83.8642
83.8096
84.9287
84.8765
84.8617
84.8206
84.799
84.7633
84.7381
84.7057
84.6782
84.648
84.6193
84.5904
84.5614
84.5324
84.5052
84.4735
84.4513
84.4127
84.4009
84.3489
85.4228
85.373
85.3585
85.3193
85.2983
85.2642
85.2398
85.2088
85.1824
85.1536
85.1258
85.0985
85.0702
85.0432
85.016
84.9869
84.9644
84.9286
84.9164
84.867
85.8952
85.8481
85.8338
85.7964
85.7761
85.7435
85.72
85.6904
85.6649
85.6374
85.6105
85.5846
85.557
85.5319
85.5049
85.4784
85.4553
85.4226
85.4095
85.363
86.3463
86.3024
86.2885
86.2534
86.2342
86.2032
86.181
86.1529
86.1286
86.1026
86.0769
86.0523
86.0256
86.0023
85.9752
85.9514
85.9274
85.898
85.8838
85.8402
86.7651
86.7246
86.7112
86.6785
86.6611
86.632
86.6117
86.586
86.5634
86.5397
86.5161
86.4936
86.469
86.448
86.4219
86.4018
86.377
86.352
86.3365
86.297
87.16
87.1227
87.1081
87.0758
87.0596
87.0312
87.0111
86.9868
86.9648
86.9422
86.9199
86.8985
86.8759
86.8566
86.8321
86.8162
86.7905
86.7723
86.7565
86.7224
87.5595
87.5321
87.5208
87.4884
87.4754
87.4499
87.4302
87.4077
87.3855
87.3626
87.3391
87.3152
87.2901
87.2663
87.238
87.2179
87.1838
87.1687
87.1425
87.1049
87.8335
87.8244
87.8395
87.8189
87.8191
87.8118
87.8071
87.8018
87.7962
87.7898
87.7821
87.7727
87.7607
87.7459
87.7256
87.7047
87.6661
87.6448
87.5729
87.516
87.7989
87.7406
87.7787
87.7894
87.807
87.8247
87.8436
87.8643
87.8869
87.912
87.9398
87.9709
88.0056
88.0444
88.088
88.137
88.1897
88.2583
88.2996
88.4628
754.953
672.732
623.801
567.832
519.018
471.89
428.03
386.56
347.48
310.503
275.461
242.175
210.48
180.372
151.979
124.543
98.0723
76.4604
51.999
15.2451
74.946
52.4397
60.6178
49.6038
47.0143
40.4834
35.7168
30.6184
26.2641
22.4152
19.332
17.0733
15.7683
15.5727
16.7749
19.2819
22.4646
26.2032
29.3889
30.2778
52.8426
44.8924
52.4141
44.6049
45.8077
41.5457
39.3309
35.7786
32.4468
28.7782
25.075
21.3092
17.6625
14.368
11.8322
10.3797
9.66617
8.94496
7.56718
7.33219
33.7233
28.1719
29.825
22.506
21.9884
16.6141
13.9432
9.85481
6.57386
3.08704
-0.0686008
-3.03563
-5.62781
-7.63682
-8.79124
-8.87098
-8.58412
-7.93974
-7.55825
-5.66418
11.1581
8.29963
11.2704
7.74438
10.6028
8.54223
9.91242
9.48602
10.1395
10.5097
11.1582
11.9029
12.7952
13.9028
15.2549
17.1071
19.1892
21.934
24.3311
27.9528
34.998
35.2912
39.2749
38.1035
42.2555
42.1761
45.049
46.3598
48.4673
50.364
52.3624
54.4015
56.4602
58.5609
60.677
62.888
65.0947
67.524
69.5515
72.2267
66.6222
67.9744
71.0795
70.4826
73.9229
74.011
76.4044
77.3936
78.9642
80.1699
81.2926
82.2154
82.9457
83.5734
84.3089
85.3509
86.763
88.4353
89.7547
90.9633
82.7605
83.8948
85.5787
85.105
87.3563
87.1579
88.8702
89.3197
90.445
91.0962
91.7997
92.3155
92.7584
93.0601
93.1363
92.7905
92.0588
90.9508
90.7315
90.1669
96.659
95.1257
95.9349
94.2476
95.3484
94.0791
94.6592
93.7808
93.5883
92.6106
91.5428
89.7945
87.426
84.2132
80.3595
76.2815
72.8445
71.2629
70.6585
66.8553
51.8964
46.1835
44.9042
40.2925
38.2295
33.9014
31.0063
26.8672
23.4838
19.7495
16.6697
13.8868
11.7945
10.2938
9.52883
9.21698
8.96107
8.72966
7.49767
5.5009
5.45859
0.122403
-0.63563
-4.15001
-5.60005
-8.80823
-10.7579
-13.6854
-15.9314
-18.392
-20.4043
-22.2794
-23.907
-25.3615
-26.5867
-27.6188
-28.2344
-28.1023
-27.6689
-24.8476
-2.72761
-3.94267
-3.48015
-4.82749
-4.50204
-5.56483
-5.61757
-6.41718
-6.79859
-7.3455
-7.64541
-7.75971
-7.55126
-6.90264
-5.71035
-3.7841
-1.34406
1.7706
4.07135
7.59343
18.6796
20.4446
22.4673
23.4794
25.371
26.5039
28.2225
29.6554
31.3057
32.9562
34.6965
36.5228
38.4288
40.4408
42.5036
44.6639
46.7313
48.8553
50.4701
52.9042
39.1589
41.3595
43.7621
45.5356
47.53
48.9828
50.6987
52.1795
53.7017
55.1483
56.5466
57.8972
59.1827
60.4246
61.5885
62.7427
63.7782
64.9249
65.7252
66.9011
55.1038
57.4147
59.1828
60.8251
62.4409
63.6872
65.0918
66.2776
67.477
68.5931
69.6664
70.7058
71.7203
72.7455
73.7907
74.9334
76.0851
77.4299
78.4288
79.8575
78.0204
79.7534
80.4427
81.4464
82.2935
83.0035
83.8504
84.5641
85.3527
86.1289
86.951
87.8206
88.7563
89.7609
90.8435
91.9654
93.0732
94.1536
94.8876
95.7457
88.7305
90.1803
90.4164
91.4692
92.1669
92.9894
93.9004
94.755
95.5815
96.2024
96.5268
96.3879
95.6993
94.4257
92.787
91.2271
90.5519
90.5345
91.0864
90.8793
110.744
110.453
109.008
108.547
108.066
107.847
107.266
106.255
104.875
103.044
100.735
97.9132
94.5896
90.9028
87.3264
84.4794
82.6909
81.6844
81.8698
80.2252
81.468
79.7762
77.2412
75.2909
73.1212
70.4336
67.6204
65.2154
63.1851
61.3016
59.5543
57.9013
56.3231
54.829
53.481
52.2846
51.3821
51.2386
51.717
50.147
92.8909
90.5719
89.196
87.3587
84.9848
82.5018
79.6114
76.36
72.6334
69.1031
65.7107
62.5361
59.6364
57.0419
54.7603
52.782
51.0338
49.4584
47.8818
45.8668
)
;

boundaryField
{
    outletWall
    {
        type            fixedValue;
        value           uniform 0;
    }
    fineWalls
    {
        type            zeroGradient;
    }
    fineFrontAndBack
    {
        type            zeroGradient;
    }
    fineplugLeft
    {
        type            cyclicAMI;
        value           nonuniform List<scalar> 
20
(
68.7679
69.6475
68.6185
68.5713
68.3065
68.2881
68.2672
68.3767
68.5416
68.8319
69.1608
69.5244
70.2165
75.3378
71.6451
71.6805
72.1457
72.5113
71.9136
71.4265
)
;
    }
    fineplugRight
    {
        type            cyclicAMI;
        value           nonuniform List<scalar> 
20
(
34.635
36.0764
36.3617
37.427
39.0225
41.1288
43.555
46.2151
49.038
51.9605
55.0529
58.1495
61.0104
71.7313
72.2233
71.9905
71.6051
70.7037
69.3629
68.8428
)
;
    }
    inletOutletLeft
    {
        type            cyclicAMI;
        value           nonuniform List<scalar> 
20
(
68.7679
69.6475
68.6185
68.5713
68.3065
68.2881
68.2672
68.3767
68.5416
68.8319
69.1608
69.5244
70.2165
75.3378
71.6451
71.6805
72.1457
72.5113
71.9136
71.4265
)
;
    }
    inletLeft
    {
        type            zeroGradient;
    }
    inletWallsLeft
    {
        type            zeroGradient;
    }
    inletFacesLeft
    {
        type            zeroGradient;
    }
    inletOutletRight
    {
        type            cyclicAMI;
        value           nonuniform List<scalar> 
20
(
34.635
36.0764
36.3617
37.427
39.0225
41.1288
43.555
46.2151
49.038
51.9605
55.0529
58.1495
61.0104
71.7313
72.2233
71.9905
71.6051
70.7037
69.3629
68.8428
)
;
    }
    inletRight
    {
        type            zeroGradient;
    }
    inletWallsRight
    {
        type            zeroGradient;
    }
    inletFacesRight
    {
        type            zeroGradient;
    }
}


// ************************************************************************* //
