/*--------------------------------*- C++ -*----------------------------------*\
| =========                 |                                                 |
| \\      /  F ield         | OpenFOAM: The Open Source CFD Toolbox           |
|  \\    /   O peration     | Version:  4.1                                   |
|   \\  /    A nd           | Web:      www.OpenFOAM.org                      |
|    \\/     M anipulation  |                                                 |
\*---------------------------------------------------------------------------*/
FoamFile
{
    version     2.0;
    format      ascii;
    class       surfaceScalarField;
    location    "10";
    object      phi;
}
// * * * * * * * * * * * * * * * * * * * * * * * * * * * * * * * * * * * * * //

dimensions      [0 3 -1 0 0 0 0];

internalField   nonuniform List<scalar> 
2360
(
3020.41
2966.76
53.6535
2966.75
2966.76
3060.96
-94.2044
3060.96
3060.96
3060.96
3372.64
-311.687
3372.65
3372.64
4016.68
-644.037
4016.68
4016.69
5116.44
-1099.76
5116.45
5116.43
7497.01
-2380.57
7496.99
7497
8054.64
9022.41
10002
10957.8
11913.8
12877.6
7805.1
6057.99
8810.91
9824.01
10842.7
11866
12893.6
13924.6
14959
15995.6
17034.5
18075.1
19147.5
20241.8
20939.4
4240.81
16698.5
4240.79
4240.79
4240.78
-2336.54
6577.32
-2336.54
-2336.53
-2336.53
-1454.72
-881.814
-1454.71
-1454.71
-7564.82
6110.12
-7564.83
-7564.82
-7564.83
-19407.3
11842.5
-19407.3
-19407.4
-19407.4
-30013.6
10606.3
-29619.5
-29159
-28771.7
-28417.9
-28016.4
-27507.2
-26861.3
-26074.3
-25152.3
-24102.9
-22932.5
-21642.7
-20229.1
-24126.6
5458.98
-22462.5
-20754.3
-19138.3
-17724.8
-16579.3
-15972
-15972
-15972
-11653.2
-4318.8
-11653.2
-11653.2
-9035.76
-2617.44
-9035.75
-9035.75
-7284.53
-1751.22
-7284.53
-7284.53
-6232.57
-1051.96
-6232.57
-6232.57
-6232.57
-5874.02
-358.549
-5874.02
-5874.02
-5962.3
88.2761
-56785
-154585
41566.9
-10610.2
-35043.7
135729
-20328.2
-31507.2
-520.467
-10697.7
-3352.93
2163.69
1418.84
4877.05
-1266
10243.4
-1967.61
4691.92
-852.48
627.885
353.943
81.6176
-461.44
3402.61
-1748.22
2238.76
-1025.85
-3048.74
569.594
-2495.81
710.077
2696.59
281.488
4207.51
0.039735
4399.01
4597.8
-30454.8
-102541
-34917.2
-6147.79
-7157.88
107970
-12654.1
-26011
-4588.6
-18763.2
1751.46
-4176.37
2630.67
3997.83
-1414.62
14288.7
-2857.96
6135.26
-69.761
-2160.32
1607.81
-1595.95
407.764
4602.65
-644.776
3291.3
158.703
-3852.22
1286.25
-3623.35
1478.76
2504.07
978.04
4708.24
284.466
5092.58
4523.73
8058.66
-112766
-10103
12013.9
2591.55
95275.2
-5486.27
-17933.2
-6047.76
-18201.8
-1225.75
-8998.38
960.058
1812.02
-751.529
16000.3
-1550.1
6933.83
1283.11
-4993.52
2439.65
-2752.49
1177.53
5864.77
68.4209
4400.41
829.886
-4613.69
1758.02
-4551.48
1689.76
2572.33
1256.62
5141.37
785.132
5564.07
4256.89
-13318.4
-91311.7
-19553.3
18248.8
-9375.51
85097.4
-11570.6
-15738.1
-7119.83
-22652.5
-4086.29
-12031.9
-779.512
-1494.76
-110.955
15331.7
378.547
6444.32
2590.34
-7205.31
2686.95
-2849.1
1408.45
7143.27
401.553
5407.3
1279.35
-5491.48
2217.55
-5489.69
2049.59
2740.29
1466.14
5724.83
1251.54
5778.66
3757.2
-18022.3
-71835.7
-20942.6
21169
-10629
74783.8
-8852.52
-17514.6
-7323.71
-24181.3
-5320.53
-14035.1
-2506.36
-4308.93
-325.085
13150.4
1230.26
4888.98
2314.26
-8289.31
1434.09
-1968.93
457.736
8119.62
6.88302
5858.15
994.083
-6478.68
1972.4
-6468.01
2036.74
2675.95
1732.74
6028.83
1831.59
5679.81
2971.35
-19400.2
-50318.8
-20283.8
22052.6
-5385.34
59885.4
-3940.92
-18959
-7000.33
-21121.9
-6168.48
-14867
-4911.59
-5565.82
-1842.68
10081.5
-181.227
3227.53
-818.042
-7652.5
-940.454
-1846.52
-873.697
8052.86
-1105.13
6089.58
-833.94
-6749.87
-9.97431
-7291.97
813.029
1852.95
1179.86
5661.99
2330.04
4529.63
982.576
-19089.8
-31967.1
-18079.9
21042.8
-1985.16
43790.6
-2096.79
-18847.4
-7133.19
-16085.5
-7252.27
-14747.9
-7362.74
-5455.35
-4669.08
7387.86
-4136.87
2695.32
-5088.79
-6700.57
-3417.82
-3517.49
-2526.36
7161.41
-3033.18
6596.4
-4420.53
-5362.51
-4377
-7335.5
-1421.11
-1102.94
814.34
3426.54
1375.93
3968.03
7817.48
-18411.9
-15918
-15656.9
18287.9
-1380.32
29514
-3362.53
-16865.2
-7901.42
-11546.6
-8688.08
-13961.2
-9779.44
-4363.98
-8386.62
5995.03
-8304.76
2613.46
-8575.32
-6430.01
-6586.82
-5505.99
-4767.38
5341.97
-5756.42
7585.44
-9176.92
-1942.02
-10209.4
-6303.01
-7138.03
-4174.32
-4628.8
917.307
-6218.39
5557.62
12205.4
-17720.6
-3668.8
-13414.7
13982
-803.824
16903.1
-4334.21
-13334.8
-8526.38
-7354.43
-10140.7
-12346.9
-11888.3
-2616.42
-11315.1
5421.87
-10956.8
2255.17
-10841.7
-6545.16
-9719.72
-6627.92
-8068.26
3690.51
-9242.28
8759.46
-13431.5
2247.24
-15617.9
-4116.64
-15656.5
-4135.77
-14692.1
-47.0322
-13816.1
4681.59
10231.8
-16721.1
5396.58
-11806.8
9067.64
325.988
4770.33
-4900.33
-8108.46
-8864.4
-3390.35
-11166.5
-10044.8
-13155.3
-627.675
-12589.9
4856.49
-11550.8
1216.02
-11739.9
-6356.02
-12811.7
-5556.09
-12545.9
3424.63
-12279.6
8493.15
-13441.7
3409.35
-14026.9
-3531.36
-14109.1
-4053.63
-13486.8
-669.268
-11116.9
2311.63
5224.99
-14814.2
13643.9
-10834.5
5087.98
1568.5
-7632.68
-5867.36
-672.607
-8853.83
-403.882
-11144.3
-7754.34
-13094.3
1322.37
-12156.3
3918.46
-10726.9
-213.331
-11727
-5355.98
-14335.8
-2947.29
-15126.9
4215.73
-14366.8
7733.06
-14128.1
3170.72
-14164.8
-3494.65
-13504.1
-4714.4
-11125.2
-3048.17
-6705.51
-2108.03
-2362.34
-14702.7
23926.7
-11516.9
1902.12
1801.46
-20951
-4906.8
6035.65
-8310.19
2999.51
-9526.38
-6538.14
-11117.2
2913.18
-10091.9
2893.19
-9320.17
-985.084
-11642
-3034.15
-15093.2
503.864
-16329.6
5452.12
-15237.2
6640.71
-13396.6
1330.12
-12881.4
-4009.85
-14524.1
-3071.67
-15321.5
-2250.79
-13146.7
-4282.87
-8931.71
-17260.2
39010.1
-14543.2
-814.896
2893.76
-38387.9
-302.782
9232.19
-6823.61
9520.33
-6704.16
-6657.6
-7906.98
4116
-7614.19
2600.4
-7842.29
-756.982
-10424.3
-452.162
-13259.5
3339.14
-13643.6
5836.21
-10060.5
3057.57
-5057.17
-3673.21
-3488.81
-5578.2
-6479.84
-80.6406
-10223.9
1493.23
-13703
-803.753
-5936.15
-17233.4
55350.5
-15927.1
-2121.25
2846.04
-57161
2981.41
9096.83
-4562.42
17064.2
-3356.99
-7863.02
-4432.6
5191.61
-5613.65
3781.44
-6201.88
-168.748
-7892.36
1238.31
-9390.67
4837.45
-8659.26
5104.79
-4783.09
-818.603
-1990.78
-6465.52
-1226.13
-6342.85
-727.302
-579.467
794.427
-28.5064
1118.97
-1128.3
1240.79
-17273
74409.7
-17041.4
-2352.86
1783.35
-75985.8
2027.78
8852.4
-4151.14
23243.1
400.309
-12414.5
-76.5504
5668.47
-3640.42
7345.32
-4458.74
649.572
-4973.2
1752.76
-5331.46
5195.71
-4129.36
3902.7
-1754.6
-3193.37
-975.764
-7244.35
-883.291
-6435.32
527.238
-1990
446.639
52.0903
1054.51
-1736.18
-85.2704
-9423.9
84891.6
-13725.2
1948.44
-1877
-87834
-2818.26
9793.67
-4251.71
24676.5
1904.78
-18571
2208.34
5364.9
-1359.78
10913.4
-3066.22
2356.01
-2731.94
1418.48
-2144.19
4607.96
-839.633
2598.14
62.3394
-4095.34
56.5144
-7238.52
-191.815
-6186.99
174.94
-2356.75
464.867
-237.845
465.513
-1736.83
-719.533
-22165.1
113397
-23044.7
2828.08
-6405.44
-104473
-9307.31
12695.5
-3394.3
18763.5
1256.46
-23221.7
1856.18
4765.17
795.342
11974.3
-1409.11
4560.47
-1248.83
1258.19
27.2313
3331.9
1138.05
1487.32
1199.03
-4156.32
743.017
-6782.51
40.2578
-5484.24
-187.009
-2129.49
64.4897
-489.344
130.598
-1802.94
-1232.97
9438.11
101825
-4577.39
16843.6
4226.85
-113277
-3654.07
20576.4
-3012.31
18121.8
-1255.24
-24978.8
-268.428
3778.36
2194.22
9511.63
736.007
6018.68
-43.6541
2037.85
1057.68
2230.56
1935.7
609.303
1746.21
-3966.83
955.729
-5992.04
-77.5319
-4450.97
-373.517
-1833.5
-10.2405
-852.623
-27.4339
-1785.75
-1572.09
-21692.7
146176
-28428.6
23579.4
-8479.73
-133226
-11487.8
23584.5
-2466.48
9100.48
-4405.76
-23039.5
-2379.41
1752.01
2882.55
4249.68
2058.52
6842.71
1366.64
2729.74
1111.11
2486.09
1884.86
-164.442
1610.66
-3692.63
541.937
-4923.32
-500.264
-3408.77
-520.113
-1813.65
-69.2187
-1303.52
-129.252
-1725.72
-1795.55
-63564.8
38459.9
-34838.8
-21306.3
6835
-5194.1
-3610.62
856.505
3611.97
3034.22
1147.23
1098.67
832.058
-81.3486
-448.594
-270.278
-19.5776
-51.1921
15.1078
-572.723
110.639
-1063.27
177.321
-1046.23
231.112
-1009.6
281.378
-1006.29
324.001
-1006.41
339.486
-1000.91
334.106
-1000.46
323.512
-1002.54
308.87
-1004.07
291.286
-1005.75
271.209
-1007.47
249.222
-1009.04
225.784
-1010.97
201.291
-1012.14
175.995
-1013.63
150.997
-1015.54
132.412
-1053.89
108.155
-1070.01
-589.384
33.5704
-606.284
27.8155
-1057.51
10.0788
-1028.49
0.183647
-999.701
-5.4299
-1000.67
-10.4169
-1001.41
-6.97871
-1004.34
-2.92648
-1004.5
-0.128866
-1005.33
1.7718
-1005.96
2.89035
-1006.86
3.19199
-1007.76
2.75813
-1008.6
1.58143
-1009.78
-0.141825
-1010.41
-2.40917
-1011.35
-4.80979
-1013.13
-10.6966
-1048
-12.9801
-1067.71
-602.364
24.7219
-631.001
29.6979
-1062.48
29.1952
-1027.98
30.387
-1000.89
30.8734
-1001.16
30.8244
-1001.36
28.1541
-1001.67
25.4391
-1001.78
22.5233
-1002.41
19.3012
-1002.73
15.7382
-1003.3
11.8133
-1003.84
7.56636
-1004.35
2.93305
-1005.15
-1.96247
-1005.51
-7.15643
-1006.16
-13.2217
-1007.07
-23.2203
-1038
-23.6451
-1067.29
-626.009
19.5267
-650.525
18.914
-1061.86
13.33
-1022.4
10.6295
-998.186
8.52584
-999.051
6.4685
-999.301
4.91454
-1000.11
3.30204
-1000.17
1.60426
-1000.71
-0.184466
-1000.94
-2.08412
-1001.4
-4.14039
-1001.78
-6.34771
-1002.14
-8.78057
-1002.71
-11.3733
-1002.91
-14.1683
-1003.36
-17.5944
-1003.64
-25.6529
-1029.94
-26.0641
-1066.87
-652.073
19.4024
-669.926
18.599
-1061.06
14.4416
-1018.24
12.3845
-996.127
10.3649
-997.029
8.28368
-997.218
6.01089
-997.838
3.74223
-997.899
1.43087
-998.398
-0.904739
-998.607
-3.27533
-999.023
-5.69219
-999.359
-8.13265
-999.697
-10.6474
-1000.2
-13.1654
-1000.4
-15.6937
-1000.83
-18.5853
-1000.75
-25.3898
-1023.13
-26.3287
-1065.93
-678.402
19.7276
-689.652
18.2816
-1059.61
13.7105
-1013.66
11.5494
-993.965
9.52473
-995.004
7.47388
-995.166
5.41315
-995.776
3.35374
-995.839
1.26429
-996.308
-0.841533
-996.5
-2.97014
-996.893
-5.13605
-997.192
-7.31522
-997.517
-9.5558
-997.956
-11.7902
-998.16
-14.0376
-998.585
-16.4749
-998.308
-22.2992
-1017.31
-24.2192
-1064.01
-702.621
20.2216
-709.873
18.2287
-1057.62
13.8291
-1009.26
11.7928
-991.928
9.8305
-993.04
7.8385
-993.174
5.80403
-993.741
3.78177
-993.816
1.73818
-994.263
-0.30714
-994.454
-2.36112
-994.838
-4.43242
-995.12
-6.4968
-995.451
-8.59904
-995.853
-10.6729
-996.085
-12.7506
-996.506
-14.8978
-996.16
-19.8695
-1012.34
-22.4698
-1061.41
-725.091
20.4635
-730.336
17.8889
-1055.04
13.6196
-1004.99
11.7001
-990.008
9.82052
-991.161
7.91661
-991.269
5.98055
-991.804
4.05618
-991.891
2.11074
-992.317
0.164844
-992.508
-1.78977
-992.883
-3.75962
-993.15
-5.72182
-993.489
-7.71893
-993.856
-9.68552
-994.118
-11.6649
-994.527
-13.6479
-994.177
-18.1059
-1007.88
-21.3113
-1058.21
-746.402
20.5446
-750.88
17.3501
-1051.85
13.2965
-1000.94
11.4878
-988.199
9.68031
-989.353
7.85266
-989.441
5.99214
-989.943
4.14421
-990.043
2.27516
-990.448
0.407851
-990.64
-1.46863
-991.006
-3.35713
-991.261
-5.23804
-991.608
-7.15095
-991.943
-9.03276
-992.236
-10.9352
-992.624
-12.797
-992.315
-16.8756
-1003.8
-20.6512
-1054.43
-767.054
20.4999
-771.38
16.6811
-1048.03
12.8679
-997.127
11.1629
-986.494
9.42478
-987.614
7.67227
-987.689
5.8877
-988.158
4.11556
-988.27
2.32122
-988.653
0.529612
-988.848
-1.2733
-989.203
-3.0865
-989.448
-4.89462
-989.799
-6.73319
-990.104
-8.54236
-990.427
-10.3797
-990.786
-12.1454
-990.549
-15.9243
-1000.02
-20.2731
-1050.08
-787.327
20.4007
-791.78
15.9548
-1043.58
12.4006
-993.573
10.788
-984.881
9.11475
-985.941
7.43262
-986.006
5.71898
-986.445
4.01769
-986.569
2.2934
-986.929
0.573044
-987.128
-1.16078
-987.469
-2.90252
-987.706
-4.64213
-988.059
-6.4098
-988.336
-8.1504
-988.686
-9.92495
-989.012
-11.6053
-988.868
-15.1109
-996.514
-20.0402
-1045.15
-807.367
20.2752
-812.055
15.2056
-1038.51
11.9183
-990.285
10.3899
-983.352
8.78029
-984.331
7.16682
-984.393
5.52251
-984.8
3.89037
-984.937
2.2345
-985.273
0.583759
-985.477
-1.08273
-985.803
-2.75443
-986.034
-4.42763
-986.386
-6.12558
-986.638
-7.79964
-987.012
-9.51174
-987.3
-11.1139
-987.266
-14.3564
-993.272
-19.8718
-1039.64
-827.239
20.1445
-832.2
14.4527
-1032.82
11.4373
-987.27
9.9859
-981.901
8.43983
-982.785
6.894
-982.847
5.31799
-983.224
3.75385
-983.373
2.16543
-983.684
0.583062
-983.894
-1.01714
-984.202
-2.61959
-984.431
-4.2278
-984.778
-5.85616
-985.01
-7.46505
-985.403
-9.11397
-985.651
-10.6438
-985.736
-13.6258
-990.29
-19.7296
-1033.53
-846.968
20.0184
-852.218
13.7036
-1026.51
10.9629
-984.529
9.58339
-980.521
8.10234
-981.304
6.62485
-981.369
5.11733
-981.717
3.62136
-981.877
2.10078
-982.164
0.586389
-982.38
-0.94744
-982.669
-2.48077
-982.898
-4.02504
-983.234
-5.58332
-983.452
-7.12877
-983.857
-8.71362
-984.066
-10.1769
-984.273
-12.9006
-987.566
-19.5926
-1026.84
-866.561
19.9097
-872.128
12.9647
-1019.56
10.5007
-982.065
9.18902
-979.21
7.77454
-979.889
6.36658
-979.961
4.92733
-980.277
3.49933
-980.449
2.0469
-980.711
0.599434
-980.932
-0.867747
-981.201
-2.33232
-981.434
-3.81338
-981.752
-5.30013
-981.965
-6.78395
-982.373
-8.30239
-982.547
-9.70413
-982.871
-12.1721
-985.098
-19.4466
-1019.57
-886.007
19.8436
-891.971
12.2549
-1011.97
10.0742
-979.885
8.83303
-977.969
7.48941
-978.546
6.15526
-978.627
4.78475
-978.907
3.42318
-979.087
2.03694
-979.325
0.65122
-979.547
-0.753807
-979.796
-2.15651
-980.031
-3.58087
-980.328
-5.00063
-980.545
-6.43136
-980.943
-7.88304
-981.096
-9.23041
-981.524
-11.4477
-982.881
-19.285
-1011.73
-905.292
19.8668
-911.838
11.6131
-1003.72
9.74414
-978.016
8.60078
-976.825
7.34922
-977.294
6.11099
-977.389
4.82706
-977.623
3.54398
-977.804
2.23372
-978.015
0.91349
-978.226
-0.428963
-978.454
-1.77722
-978.683
-3.15502
-978.95
-4.525
-979.175
-5.92949
-979.538
-7.33317
-979.692
-8.66737
-980.19
-10.672
-980.876
-19.0371
-1003.36
-924.329
20.0761
-931.914
11.1014
-994.746
9.58917
-976.503
8.6041
-975.84
7.48245
-976.173
6.37072
-976.277
5.20205
-976.454
4.01682
-976.619
2.79904
-976.797
1.55774
-976.985
0.289224
-977.185
-0.99714
-977.396
-2.3183
-977.629
-3.63938
-977.854
-5.02032
-978.157
-6.37934
-978.333
-7.75889
-978.81
-9.59854
-979.036
-18.4199
-994.542
-942.749
20.7985
-952.713
11.0691
-985.016
9.96425
-975.398
9.25113
-975.127
8.35675
-975.278
7.43144
-975.352
6.42319
-975.446
5.35176
-975.547
4.21263
-975.658
3.00849
-975.781
1.74123
-975.918
0.416668
-976.072
-0.967556
-976.245
-2.3851
-976.436
-3.87429
-976.668
-5.328
-976.879
-6.87848
-977.26
-8.531
-977.384
-17.5626
-985.51
-960.312
22.2871
12.2709
11.8725
11.7456
11.4673
11.1154
10.6695
10.1222
9.46441
8.68338
7.76534
6.69369
5.44879
4.01239
2.34427
0.465139
-1.79441
-4.17809
-14.6882
-662.616
1637.59
-1071.23
1383.59
-1489.08
1392.83
-1822.66
1308.56
-2117.38
1269.71
-2361.89
1219.5
-2564.25
1177.35
-2724.1
1134.84
-2843.7
1094.58
-2923.96
1055.25
-2965.21
1016.25
-2965.29
975.061
-2918.38
928.09
-2814.37
870.982
-2638.88
799.501
-2376.87
712.979
-2015.33
613.454
-1526.57
486.238
-862.508
310.927
112.491
-211.943
1849.51
-478.229
1649.86
-758.391
1672.98
-1001.47
1551.61
-1237.07
1505.29
-1443.88
1426.29
-1630.71
1364.17
-1793.77
1297.88
-1935.74
1236.54
-2055.96
1175.46
-2151.74
1112.01
-2213.41
1036.72
-2219.89
934.562
-2133.94
785.026
-1914.43
579.982
-1559.87
358.412
-1128.56
182.135
-676.279
33.9451
-252.533
-112.843
-140.043
-180.048
2029.54
-380.397
1850.19
-546.12
1838.69
-673.315
1678.79
-791.081
1623.05
-878.41
1513.6
-953.185
1438.93
-1008.37
1353.05
-1050.26
1278.41
-1077.35
1202.53
-1090.21
1124.86
-1085.89
1032.38
-1057.49
906.152
-990.246
717.769
-867.204
456.924
-693.897
185.086
-541.133
29.3485
-424.061
-83.1515
-256.031
-280.9
-396.074
-4.27915
2033.81
-67.4104
1913.3
-94.9805
1866.24
-105.066
1688.86
-112.72
1630.69
-102.246
1503.1
-85.6431
1422.31
-55.2483
1322.64
-14.3524
1237.5
38.5123
1149.64
100.645
1062.71
165.696
967.308
218.066
853.761
229.069
706.746
167.917
518.046
48.4375
304.498
-20.5048
98.1667
-14.2959
-89.4616
-66.681
-228.557
-462.755
106.906
1926.88
84.5686
1935.62
118.415
1832.37
161.161
1646.08
211.055
1580.76
266.626
1447.51
329.175
1359.73
398.409
1253.38
476.559
1159.32
562.746
1063.43
655.993
969.442
749.491
873.792
829.434
773.796
871.18
664.982
844.524
544.677
737.056
411.941
558.828
276.368
346.875
122.451
171.046
-52.7716
-291.71
125.129
1801.74
134.136
1926.6
181.774
1784.73
236.016
1591.84
297.295
1519.48
358.755
1386.04
425.513
1292.97
495.11
1183.77
568.479
1085.94
642.56
989.348
714.848
897.147
780.628
808.006
834.07
720.346
866.499
632.547
866.864
544.303
821.447
457.349
721.786
376.023
548.696
295.529
295.498
200.406
3.78773
75.8022
1725.92
114.063
1888.32
163.915
1734.86
214.042
1541.69
266.049
1467.45
321.249
1330.82
376.956
1237.24
436.904
1123.8
499.423
1023.41
569.763
918.992
650.641
816.255
744.061
714.576
843.698
620.695
934.214
542.026
991.222
487.282
982.488
466.077
879.998
478.502
663.622
511.893
353.587
510.421
357.375
-13.412
1739.34
22.4105
1852.51
43.1255
1714.15
40.9133
1543.9
36.9195
1471.45
19.9055
1347.84
-6.85455
1264.01
-36.2296
1153.18
-55.7484
1042.93
-48.3635
911.61
-3.45034
771.355
83.8284
627.303
207.219
497.325
353.816
395.438
503.147
337.967
618.045
351.186
641.357
455.2
525.364
627.894
279.475
756.321
636.849
-138.292
1877.6
-214.011
1928.19
-300.956
1801.06
-424.731
1667.64
-555.063
1601.75
-709.465
1502.21
-877.55
1432.07
-1052.08
1327.68
-1215.09
1205.92
-1353.17
1049.67
-1460.79
878.953
-1534.91
701.387
-1568.04
530.436
-1543.64
371.02
-1444.7
239.012
-1257.12
163.581
-966.826
164.9
-581.228
242.288
-205.694
380.775
431.155
-11.3038
1888.91
-168.514
2085.4
-286.14
1918.69
-395.889
1777.39
-505.731
1711.61
-621.16
1617.63
-740.01
1550.93
-862.447
1450.12
-988.253
1331.74
-1117.32
1178.74
-1251.24
1012.88
-1388.89
839.051
-1524.72
666.278
-1643.38
489.703
-1716.13
311.779
-1693.47
140.935
-1530.83
2.27585
-1173.59
-114.934
-599.963
-192.836
-168.807
283.448
1605.46
201.385
2167.46
99.9561
2020.12
54.2043
1823.14
42.2669
1723.55
40.6311
1619.26
50.3078
1541.26
57.9962
1442.42
55.639
1334.11
32.4105
1201.96
-12.3712
1057.67
-76.3047
902.983
-152.339
742.326
-236.034
573.405
-321.06
396.826
-385.506
205.407
-394.128
10.9255
-397.927
-111.114
-306.685
-284.059
-475.492
436.943
1168.55
528.555
2075.87
483.647
2065.05
479.463
1827.35
532.331
1670.7
604.279
1547.34
692.787
1452.77
782.477
1352.76
866.864
1249.74
932.309
1136.54
973.65
1016.35
986.185
890.468
967.003
761.527
910.065
630.358
808.858
498.056
652.435
361.849
439.149
224.247
263.542
64.5388
104.308
-124.78
-371.184
329.08
839.476
446.008
1958.95
452.832
2058.23
468.395
1811.8
520.401
1618.7
586.249
1481.51
659.956
1379.07
732.991
1279.74
801.68
1181.06
858.507
1079.73
898.238
976.625
916.113
872.605
908.677
768.967
872.905
666.139
806.524
564.441
707.726
460.653
577.672
354.308
411.057
231.162
205.527
80.7611
-165.657
110.453
729.063
150.697
1918.74
190.377
2018.58
233.522
1768.69
285.869
1566.38
342.087
1425.33
399.459
1321.73
454.338
1224.9
504.397
1131.02
546.034
1038.13
575.677
947.006
590.391
857.926
588.769
770.61
571.364
683.573
539.824
596.002
492.854
507.645
423.098
424.079
315.296
338.979
155.937
240.151
-9.71879
-59.8865
788.982
-56.9818
1915.86
11.0683
1950.55
74.2274
1705.56
133.952
1506.68
194.173
1365.14
253.669
1262.26
309.032
1169.57
358.515
1081.56
401.663
995.015
439.327
909.361
474.044
823.241
509.883
734.785
548.84
644.643
584.126
560.729
594.024
497.763
549.516
468.593
426.37
462.13
223.695
442.836
213.976
-139.965
928.991
-125.504
1901.43
-12.9706
1838.05
79.3581
1613.27
152.697
1433.38
221.543
1296.34
291.992
1191.85
364.528
1097.08
440.522
1005.6
523.43
912.148
617.358
815.462
724.624
716.009
842.037
617.394
952.532
534.174
1020.29
492.991
1001.62
516.444
871.594
598.635
632.763
700.972
333.104
742.512
547.08
-122.867
1051.87
-133.939
1912.51
-55.7751
1759.9
41.4067
1516.11
124.972
1349.83
186.032
1235.3
243.206
1134.69
310.703
1029.61
396.831
919.487
506.419
802.582
640.259
681.63
791.982
564.304
943.322
466.056
1060.92
416.585
1100.63
453.283
1026.6
590.48
832.95
792.283
549.439
984.48
247.536
1044.41
794.616
-39.3279
1091.22
-36.7306
1909.93
-115.388
1838.56
-209.06
1609.8
-282.992
1423.77
-335.999
1288.33
-377.522
1176.22
-414.161
1066.26
-444.582
949.917
-465.726
823.74
-474.775
690.688
-468.064
557.606
-439.467
437.468
-379.678
356.807
-283.622
357.234
-163.5
470.366
-55.9226
684.71
0.107261
928.454
-2.85615
1047.38
791.76
243.235
847.998
541.419
1611.76
589.073
1790.92
399.363
1799.52
98.9436
1724.2
-197.115
1584.41
-446.92
1426.04
-667.556
1286.92
-874.733
1157.1
-1078.44
1027.46
-1280.13
892.383
-1471.26
748.744
-1630.4
596.614
-1718.05
444.466
-1682.44
321.628
-1491.12
279.053
-1151.91
345.504
-725.312
501.868
-312.953
635.032
478.808
240.725
707.008
1084.39
1267.91
1283.94
1204.27
1068.8
942.166
809.428
666.511
509.532
336.244
145.927
-55.5399
-243.106
-365.476
-373.81
-259.193
-84.5887
)
;

boundaryField
{
    outletWall
    {
        type            calculated;
        value           nonuniform List<scalar> 
60
(
-5962.3
-4509.5
-4117.56
-3778.92
-2837.07
900.365
2326.37
-951.973
-2587.23
-1288.04
-1743.02
-3990.31
-7558.54
-9648.82
668.775
-9110.03
16791.7
-59118.5
-87741.6
182215
28929.8
-22658.6
2133.86
-6340.39
-1057.94
-1786.12
892.956
2176.81
4419.92
6566.82
7655.77
5471.35
2362.76
738.124
-2116.76
-1453.68
-8136.19
2166.31
-21588.6
29154.4
-3020.41
-1793.08
-1694.1
-1554.22
-1991.97
-3041.53
-4009.91
-3426.02
-115.874
4373.08
3307.49
4087.24
-217.444
168.527
-11010.4
-19040.9
10052
-59927.5
-78445.3
180811
)
;
    }
    fineWalls
    {
        type            calculated;
        value           uniform 0;
    }
    fineFrontAndBack
    {
        type            calculated;
        value           nonuniform List<scalar> 
960
(
-6.31465e-16
5.7139e-14
-1.48285e-14
-1.01188e-14
1.41276e-14
-2.91621e-14
-9.87679e-15
-1.15769e-13
1.10068e-13
1.82132e-13
3.15351e-13
-3.91884e-15
-4.0753e-13
-3.98852e-13
-3.80867e-12
-1.10897e-12
-1.23527e-12
-5.29757e-12
-8.08235e-13
-1.32486e-12
-6.91195e-14
-4.70222e-13
-5.4941e-13
-5.98435e-13
-5.84645e-13
-7.55808e-13
-1.23437e-11
-8.73251e-13
-9.07562e-13
-9.26893e-13
-9.24283e-13
-9.46172e-13
-9.42246e-13
-9.39847e-13
-9.70983e-13
-9.73059e-13
-9.75432e-13
-9.70311e-13
-9.28075e-13
-1.09099e-12
-2.13852e-11
-2.63437e-12
-2.34037e-12
-3.40284e-12
4.21945e-11
2.42571e-11
2.28072e-11
1.97847e-11
6.4932e-11
1.64582e-12
1.45751e-13
2.28524e-12
4.38551e-13
5.89036e-13
6.88755e-13
6.94437e-12
1.60593e-12
1.97727e-12
2.23359e-12
1.4201e-11
3.7696e-13
2.61415e-14
-2.76028e-13
-5.95837e-13
-7.54145e-13
-8.22353e-13
-8.50301e-13
-8.39282e-13
-7.76268e-13
-6.95935e-13
-6.33672e-13
-5.93091e-13
-5.50618e-13
-1.0639e-11
-5.7446e-13
-6.38389e-13
-6.55959e-13
-4.43511e-13
-1.66475e-13
-1.54178e-13
-1.90068e-12
-1.66178e-12
-1.05048e-11
-2.46917e-12
-2.45125e-12
-1.1824e-11
-2.01078e-12
-2.22412e-12
-9.2512e-12
-1.54709e-12
-2.01993e-12
-5.34883e-12
1.50781e-13
2.04976e-13
2.25523e-13
1.80387e-12
3.82994e-13
4.35357e-13
1.39844e-12
-3.92211e-14
-9.35972e-09
5.68385e-10
5.80637e-10
-1.88429e-10
5.31352e-11
1.33409e-11
-8.24297e-13
-5.28961e-13
1.30054e-13
1.84218e-12
4.77729e-12
-8.54445e-13
-1.76789e-13
-8.379e-15
-3.34313e-14
-2.46582e-15
1.11793e-15
-9.28256e-16
4.99625e-14
2.91463e-09
4.79614e-10
7.93439e-10
-7.85678e-11
-2.10687e-11
-2.02866e-11
-9.65123e-12
-2.35666e-12
1.07335e-12
7.79581e-12
1.4801e-11
5.49588e-12
1.15843e-13
-4.10103e-14
5.16851e-14
-1.08348e-14
-6.78252e-15
3.70508e-15
-1.00306e-13
1.0713e-10
5.89037e-10
8.39282e-10
-6.2407e-11
-2.85669e-11
-2.47796e-11
-1.22473e-11
-5.6513e-12
-1.55649e-14
4.7969e-12
1.21912e-11
1.41674e-11
3.24536e-12
3.63627e-13
3.59976e-13
1.54958e-13
9.68792e-15
-7.80362e-15
3.97788e-13
7.62447e-10
7.62206e-10
7.45644e-10
-7.50084e-11
-3.88358e-11
-3.17999e-11
-1.09543e-11
-9.35988e-12
-2.05808e-12
5.16013e-12
9.29375e-12
1.74174e-11
6.75223e-12
1.13754e-12
1.17536e-12
7.55734e-13
1.56763e-13
-5.9568e-14
1.3409e-12
6.82599e-10
8.16443e-10
6.25244e-10
6.24673e-11
-4.54654e-11
-3.87463e-11
-8.61013e-12
-9.55493e-12
-4.20516e-12
9.32119e-12
7.83148e-12
1.55847e-11
7.50449e-12
1.6212e-12
2.73265e-12
2.16293e-12
7.01892e-13
-9.22359e-14
3.18753e-12
7.19775e-10
7.84604e-10
5.47348e-10
1.73291e-10
-4.36337e-11
-4.07267e-11
-3.87494e-12
-3.75248e-12
-2.33376e-12
8.34844e-12
5.08187e-12
1.2599e-11
6.7128e-12
2.82161e-12
4.77717e-12
3.71679e-12
1.64489e-12
-1.30219e-13
6.31569e-12
7.48226e-10
7.18163e-10
5.01496e-10
1.26748e-10
-5.39167e-11
-3.42016e-11
1.52831e-12
7.79155e-12
4.43904e-12
1.39247e-12
3.77297e-12
9.83137e-12
6.4884e-12
4.95483e-12
6.30677e-12
4.16917e-12
1.63696e-12
-6.93937e-13
-8.51743e-12
7.8776e-10
6.4179e-10
4.65904e-10
4.17585e-11
-6.64132e-11
-2.32273e-11
4.60701e-12
1.35853e-11
3.29963e-12
-5.07609e-12
1.07629e-12
8.33122e-12
6.9841e-12
6.61763e-12
7.96035e-12
6.16368e-12
3.70669e-12
5.38026e-12
1.15519e-11
8.61384e-10
5.47854e-10
4.26168e-10
1.99162e-11
-6.1764e-11
-1.38229e-11
4.36469e-12
9.56531e-12
-4.91186e-12
-1.12564e-11
1.04809e-12
9.39471e-12
6.89696e-12
6.4365e-12
6.63593e-12
8.03251e-12
9.01932e-12
1.04718e-11
1.33119e-11
9.18067e-10
4.70756e-10
3.88994e-10
3.12257e-11
-5.27124e-11
-8.3062e-12
2.40451e-12
4.63478e-14
-1.52216e-11
-1.6876e-11
2.79906e-12
2.1638e-11
6.67656e-12
-1.9516e-12
-1.15616e-11
-2.71088e-12
1.04956e-11
1.05813e-11
6.46753e-12
7.36511e-10
3.10862e-10
1.85154e-10
2.54949e-11
-5.09768e-11
-8.69854e-12
7.7618e-12
-1.18009e-11
-1.97269e-11
-2.15056e-11
-1.42359e-11
-1.14152e-12
-5.00617e-12
-2.77682e-11
-4.45162e-11
-3.48841e-11
-1.38837e-11
1.49932e-11
4.91192e-11
2.88912e-10
-7.49357e-11
-7.79144e-11
-9.13919e-12
-5.34347e-11
-2.5971e-11
-8.18453e-12
-1.24334e-11
-1.8072e-11
-2.11315e-11
-2.3925e-11
-2.13826e-11
-2.16124e-11
-2.7973e-11
-2.48988e-11
-2.68344e-11
-3.09529e-11
-2.25433e-11
6.69553e-12
1.31368e-11
-9.75138e-11
-6.68934e-11
-5.18944e-12
-4.91916e-11
-3.62456e-11
-1.02728e-11
-1.33149e-11
-1.78425e-11
-2.2658e-11
-2.84236e-11
-2.84764e-11
-2.30581e-11
-1.23281e-11
-3.77026e-12
-9.64959e-12
-2.11685e-11
-2.66817e-11
-3.28373e-11
-9.44249e-11
-7.49064e-11
-6.99576e-11
-1.44046e-11
-4.28656e-11
-5.68849e-11
-1.21273e-11
-1.52461e-11
-1.8503e-11
-2.17344e-11
-2.66642e-11
-2.65609e-11
-1.73239e-11
-7.55594e-12
-3.491e-12
-4.94959e-13
-6.16864e-12
1.05963e-12
-2.33963e-12
-1.23437e-10
-6.89687e-11
-6.85161e-11
-3.12849e-11
-4.20937e-11
-5.51721e-11
-3.20022e-11
-1.77702e-11
-1.92358e-11
-1.90436e-11
-2.19998e-11
-2.37382e-11
-1.63871e-11
-9.99116e-12
-3.39639e-12
-2.31589e-13
3.83757e-13
-8.72052e-13
5.71963e-12
-1.31916e-10
-6.97569e-11
-6.70125e-11
-3.90569e-11
-3.88447e-11
-2.56694e-11
-4.48497e-11
-2.38999e-11
-2.05257e-11
-1.67782e-11
-1.57555e-11
-2.0934e-11
-1.66152e-11
-7.96346e-12
-1.73633e-12
1.09119e-13
7.33329e-14
1.23111e-13
1.45663e-12
-1.34589e-10
-6.92358e-11
-6.55532e-11
-3.33335e-11
-3.43061e-11
-4.80124e-12
-2.30227e-11
-2.42971e-11
-2.23575e-11
-1.6534e-11
-1.01982e-11
-1.50717e-11
-1.20167e-11
-4.7253e-12
-6.7881e-13
1.1038e-13
-1.01745e-14
-3.1576e-14
-5.5747e-14
-9.95006e-11
-1.34475e-10
-6.30823e-11
-2.59982e-11
-3.17127e-11
-8.4812e-13
-1.51164e-11
-2.30074e-11
-2.39721e-11
-2.23315e-11
-1.12088e-11
-8.75149e-12
-5.38541e-12
-1.5685e-12
6.50758e-14
4.91836e-14
-5.95022e-15
8.69813e-15
-1.87496e-14
-2.50569e-10
-9.17005e-11
-5.34185e-11
-2.25029e-11
-3.35073e-11
-2.7451e-12
-2.21585e-11
-2.65941e-11
-2.50601e-11
-2.20508e-11
-1.42519e-11
-6.20365e-12
-1.76196e-12
-1.44826e-13
9.39599e-14
-1.14452e-14
7.23947e-16
2.9526e-16
5.67102e-15
3.86385e-10
-5.50795e-11
-3.5811e-11
-1.87978e-11
-9.35038e-12
-1.80864e-12
-1.41988e-11
-2.67371e-11
-3.76301e-11
-3.84414e-11
-1.9283e-11
-2.81565e-12
8.09437e-14
8.58844e-14
-4.07487e-15
-1.35628e-15
1.44302e-16
-7.70732e-16
1.08648e-15
6.31465e-16
-5.7139e-14
1.48285e-14
1.01188e-14
-1.41276e-14
2.91621e-14
9.87679e-15
1.15769e-13
-1.10068e-13
-1.82132e-13
-3.15351e-13
3.91884e-15
4.0753e-13
3.98852e-13
3.80867e-12
1.10897e-12
1.23527e-12
5.29757e-12
8.08235e-13
1.32486e-12
6.91195e-14
4.70222e-13
5.4941e-13
5.98435e-13
5.84645e-13
7.55808e-13
1.23437e-11
8.73251e-13
9.07562e-13
9.26893e-13
9.24283e-13
9.46172e-13
9.42246e-13
9.39847e-13
9.70983e-13
9.73059e-13
9.75432e-13
9.70311e-13
9.28075e-13
1.09099e-12
2.13852e-11
2.63437e-12
2.34037e-12
3.40284e-12
-4.21945e-11
-2.42571e-11
-2.28072e-11
-1.97847e-11
-6.4932e-11
-1.64582e-12
-1.45751e-13
-2.28524e-12
-4.38551e-13
-5.89036e-13
-6.88755e-13
-6.94437e-12
-1.60593e-12
-1.97727e-12
-2.23359e-12
-1.4201e-11
-3.7696e-13
-2.61415e-14
2.76028e-13
5.95837e-13
7.54145e-13
8.22353e-13
8.50301e-13
8.39282e-13
7.76268e-13
6.95935e-13
6.33672e-13
5.93091e-13
5.50618e-13
1.0639e-11
5.7446e-13
6.38389e-13
6.55959e-13
4.43511e-13
1.66475e-13
1.54178e-13
1.90068e-12
1.66178e-12
1.05048e-11
2.46917e-12
2.45125e-12
1.1824e-11
2.01078e-12
2.22412e-12
9.2512e-12
1.54709e-12
2.01993e-12
5.34883e-12
-1.50781e-13
-2.04976e-13
-2.25523e-13
-1.80387e-12
-3.82994e-13
-4.35357e-13
-1.39844e-12
3.92211e-14
9.35972e-09
-5.68385e-10
-5.80637e-10
1.88429e-10
-5.31352e-11
-1.33409e-11
8.24297e-13
5.28961e-13
-1.30054e-13
-1.84218e-12
-4.77729e-12
8.54445e-13
1.76789e-13
8.379e-15
3.34313e-14
2.46582e-15
-1.11793e-15
9.28256e-16
-4.99625e-14
-2.91463e-09
-4.79614e-10
-7.93439e-10
7.85678e-11
2.10687e-11
2.02866e-11
9.65123e-12
2.35666e-12
-1.07335e-12
-7.79581e-12
-1.4801e-11
-5.49588e-12
-1.15843e-13
4.10103e-14
-5.16851e-14
1.08348e-14
6.78252e-15
-3.70508e-15
1.00306e-13
-1.0713e-10
-5.89037e-10
-8.39282e-10
6.2407e-11
2.85669e-11
2.47796e-11
1.22473e-11
5.6513e-12
1.55649e-14
-4.7969e-12
-1.21912e-11
-1.41674e-11
-3.24536e-12
-3.63627e-13
-3.59976e-13
-1.54958e-13
-9.68792e-15
7.80362e-15
-3.97788e-13
-7.62447e-10
-7.62206e-10
-7.45644e-10
7.50084e-11
3.88358e-11
3.17999e-11
1.09543e-11
9.35988e-12
2.05808e-12
-5.16013e-12
-9.29375e-12
-1.74174e-11
-6.75223e-12
-1.13754e-12
-1.17536e-12
-7.55734e-13
-1.56763e-13
5.9568e-14
-1.3409e-12
-6.82599e-10
-8.16443e-10
-6.25244e-10
-6.24673e-11
4.54654e-11
3.87463e-11
8.61013e-12
9.55493e-12
4.20516e-12
-9.32119e-12
-7.83148e-12
-1.55847e-11
-7.50449e-12
-1.6212e-12
-2.73265e-12
-2.16293e-12
-7.01892e-13
9.22359e-14
-3.18753e-12
-7.19775e-10