/*--------------------------------*- C++ -*----------------------------------*\
| =========                 |                                                 |
| \\      /  F ield         | OpenFOAM: The Open Source CFD Toolbox           |
|  \\    /   O peration     | Version:  4.1                                   |
|   \\  /    A nd           | Web:      www.OpenFOAM.org                      |
|    \\/     M anipulation  |                                                 |
\*---------------------------------------------------------------------------*/
FoamFile
{
    version     2.0;
    format      ascii;
    class       volVectorField;
    location    "10";
    object      U;
}
// * * * * * * * * * * * * * * * * * * * * * * * * * * * * * * * * * * * * * //

dimensions      [0 1 -1 0 0 0 0];

internalField   nonuniform List<vector> 
1280
(
(-4.56344e-19 1.71567 -0.0364728)
(7.86836e-18 1.02468 -0.207937)
(-8.83628e-18 0.832996 -0.216388)
(-7.31259e-18 1.05384 -0.202049)
(2.40112e-18 1.15906 -0.307081)
(-2.10747e-17 0.917295 -0.253806)
(-7.1377e-18 1.06048 -0.255812)
(-9.83318e-17 1.03291 -0.23487)
(7.20643e-17 1.22682 -0.428067)
(1.31622e-16 1.06742 -0.385042)
(2.41235e-16 1.15976 -0.356817)
(-9.04823e-17 1.41741 -0.638885)
(-3.05738e-16 1.24796 -0.548901)
(-2.8824e-16 1.3833 -0.500924)
(-7.18182e-16 1.67909 -0.90512)
(-8.01421e-16 1.56976 -0.777766)
(-8.92701e-16 1.7545 -0.644182)
(-9.00373e-16 2.07679 -1.75378)
(-5.8409e-16 2.43998 -0.942882)
(-9.5744e-16 2.01151 -2.50576)
(-2.83567e-16 2.39397 0.696346)
(-1.92912e-15 2.58328 4.05514)
(-2.25399e-15 2.33905 5.79122)
(-2.45512e-15 2.57415 6.90876)
(-2.39854e-15 2.47223 7.71827)
(-3.10075e-15 2.80484 8.70158)
(-2.6021e-15 1.25309 8.41386)
(-3.58257e-15 5.06101 13.4956)
(-3.72333e-15 5.30351 13.9975)
(-3.80264e-15 5.35633 14.4347)
(-3.79193e-15 5.42316 14.7932)
(-3.88173e-15 5.47665 15.0907)
(-3.86563e-15 5.51527 15.3343)
(-3.85578e-15 5.52455 15.535)
(-3.98352e-15 5.56141 15.6943)
(-3.99204e-15 5.52529 15.8223)
(-4.00177e-15 5.60791 15.9301)
(-3.98076e-15 5.43608 15.9901)
(-3.80749e-15 5.80218 16.6979)
(-4.47585e-15 5.3836 14.9657)
(-3.7224e-15 9.0339 15.1468)
(-2.11596e-15 2.82205 10.568)
(-1.87982e-15 1.26786 10.2296)
(-2.69172e-15 0.654329 11.032)
(7.77842e-15 -1.79684 2.93598)
(1.94836e-14 -1.14249 -4.84449)
(1.8319e-14 -0.78509 -3.92119)
(1.58913e-14 -0.253171 -3.92457)
(1.25526e-14 -0.289382 -3.02604)
(1.32195e-15 -0.437307 0.346771)
(-2.26337e-16 -0.596078 0.648408)
(3.9778e-16 -0.919452 3.41128)
(3.5225e-16 -1.81806 5.27459)
(4.73121e-16 -2.53334 5.20717)
(5.53217e-16 -2.99979 5.57008)
(1.20877e-15 -4.76235 8.99773)
(1.29228e-15 -5.62629 8.15303)
(1.58817e-15 -6.8152 8.0551)
(1.79405e-15 -7.41839 7.90264)
(2.375e-15 -10.9802 10.4623)
(1.5465e-15 -9.1133 8.86609)
(1.07247e-16 -9.30179 9.26858)
(-1.13242e-15 -9.26147 9.16213)
(-2.44446e-15 -9.37858 9.36397)
(-3.09393e-15 -9.45523 9.76299)
(-3.37375e-15 -9.54181 10.3794)
(-3.48841e-15 -9.61416 11.141)
(-3.44321e-15 -9.67222 11.9922)
(-3.18469e-15 -9.72569 12.8643)
(-2.85512e-15 -9.77066 13.6887)
(-2.59968e-15 -9.77727 14.3891)
(-2.43319e-15 -9.75263 14.8804)
(-2.25895e-15 -9.68932 15.0129)
(-2.24274e-15 -3.91193 8.27302)
(-2.35676e-15 -5.7345 12.4547)
(-2.61903e-15 -5.54296 9.62146)
(-2.69111e-15 -5.83487 5.95057)
(-1.81953e-15 -5.66715 2.55573)
(-6.82976e-16 -5.63056 0.766169)
(-6.32526e-16 -5.40509 -0.916908)
(-1.37358e-15 -4.70494 -3.37137)
(-1.20092e-15 -5.01662 -2.6134)
(-1.78539e-15 -4.70865 -3.23094)
(-1.78441e-15 -3.97793 -1.45999)
(-1.77146e-15 -3.58581 -1.72876)
(-2.25898e-15 -3.8552 -2.0402)
(-1.45314e-15 -3.08206 -1.02316)
(-1.64754e-15 -2.83386 -1.19579)
(-1.73324e-15 -3.11939 -1.43879)
(-1.06806e-15 -2.49273 -0.721219)
(-1.45975e-15 -2.31943 -0.845983)
(-1.35886e-15 -2.60434 -0.997099)
(5.03525e-17 -2.09219 -0.481719)
(1.48131e-16 -2.16434 -0.545581)
(1.6298e-16 -1.87771 -0.522328)
(3.06584e-16 -2.38894 -0.595714)
(2.7678e-16 -2.03858 -0.344347)
(3.14621e-16 -1.6966 -0.348814)
(2.83894e-16 -2.15286 -0.306023)
(-2.83441e-17 -3.2816 -0.0580741)
(-1.03997e-12 297.305 206.74)
(6.31539e-14 -56.9525 -76.3242)
(6.45152e-14 -51.4334 -7.02465)
(-2.09366e-14 26.2026 57.0008)
(5.90392e-15 -5.17909 -14.7597)
(1.48232e-15 -1.50262 11.0421)
(-9.15886e-17 -5.67857 -2.56667)
(-5.87734e-17 -4.36023 -0.0387441)
(1.44505e-17 -2.28442 1.82702)
(2.04686e-16 -1.15363 1.46612)
(5.3081e-16 -0.719996 -0.0740565)
(-9.49383e-17 -1.45904 -0.137801)
(-1.96433e-17 -0.573616 0.826983)
(-9.31001e-19 1.95535 1.86993)
(-3.71459e-18 1.31106 -0.0520151)
(-2.7398e-19 -1.34547 -0.771647)
(1.24215e-19 -1.8999 -0.403426)
(-1.0314e-19 -1.93568 -0.123347)
(5.55139e-18 -2.07721 0.235344)
(3.23847e-13 -96.3146 -67.0354)
(5.32904e-14 27.269 87.4256)
(8.81599e-14 -49.5313 -10.3453)
(-8.72976e-15 2.50861 16.9792)
(-2.34097e-15 8.72256 7.25496)
(-2.25407e-15 0.131222 1.02189)
(-1.07236e-15 -0.575933 -3.79565)
(-2.61851e-16 -4.48722 -0.922776)
(1.19261e-16 -1.93524 3.2593)
(8.66201e-16 0.220283 1.55395)
(1.64455e-15 0.240673 -1.49936)
(6.10653e-16 -1.46344 -1.06123)
(1.28714e-17 -1.01087 0.358848)
(-4.5567e-18 0.851106 0.56369)
(5.74279e-18 0.801204 -0.683435)
(-1.20387e-18 -0.948951 -1.40799)
(-7.53613e-19 -1.66582 -1.09753)
(4.11675e-19 -1.82888 -0.562806)
(-1.11452e-17 -1.86664 0.0779386)
(1.19034e-14 98.703 5.77035)
(6.54485e-14 -0.150145 1.46011)
(9.32535e-14 -29.2814 -4.65354)
(-6.93411e-15 9.51714 2.80366)
(-3.1741e-15 4.86772 5.92062)
(-2.75329e-15 2.6752 3.94166)
(-1.36081e-15 -1.02573 -1.13627)
(-6.27922e-16 -4.95818 -1.43105)
(-1.72943e-18 -1.9933 2.75415)
(5.32989e-16 1.43715 -0.0685116)
(1.35458e-15 0.808411 -2.15592)
(1.57416e-15 -1.6428 -1.81901)
(3.60595e-16 -1.2365 -0.248673)
(4.0403e-17 1.51622 -0.00558906)
(3.99973e-17 1.46021 -1.14904)
(1.72176e-17 -0.755025 -1.67528)
(1.07644e-18 -1.52506 -1.28894)
(-8.67068e-19 -1.64892 -0.822528)
(4.41986e-17 -1.28263 -0.581561)
(8.47163e-14 7.31411 -4.82947)
(8.46895e-14 -10.4198 25.0712)
(8.28493e-14 -28.6073 4.25267)
(-8.33426e-15 4.3812 12.3179)
(-4.31509e-15 7.14309 7.27277)
(-3.53333e-15 3.42917 4.65772)
(-1.21715e-15 -0.257523 2.44612)
(-1.03999e-15 -5.42793 -1.5982)
(-2.28676e-16 -2.43354 1.63666)
(5.73348e-16 2.10587 -2.02581)
(1.03264e-15 1.18172 -2.28833)
(1.93526e-15 -2.18351 -2.11134)
(7.50248e-16 -1.72495 -0.516948)
(1.26393e-16 1.49412 -0.266712)
(1.30595e-16 1.64098 -1.48437)
(8.39704e-17 -0.948946 -2.11225)
(1.74181e-17 -1.83906 -1.52904)
(-6.61867e-18 -1.9276 -0.916008)
(1.48989e-16 -1.40283 -1.30281)
(7.58444e-14 39.9753 11.1056)
(9.07159e-14 -7.00521 21.6714)
(6.94716e-14 -27.6078 10.0308)
(6.94081e-15 6.21765 7.35103)
(-5.05171e-15 8.15196 8.03417)
(-4.30515e-15 4.51765 4.36873)
(-9.56681e-16 1.11482 4.62417)
(-1.06166e-15 -4.92351 -0.654299)
(-4.6724e-16 -2.14582 0.820661)
(1.03569e-15 2.59354 -2.45302)
(8.70164e-16 0.967005 -1.16498)
(1.73163e-15 -2.54702 -1.2959)
(8.33832e-16 -1.97114 0.0119626)
(1.80133e-16 2.03915 -0.0831897)
(3.03627e-16 2.07258 -1.02344)
(2.40326e-16 -0.444935 -2.06022)
(7.7988e-17 -1.96151 -1.7639)
(-1.02484e-17 -1.92343 -1.12704)
(3.5417e-16 -1.08479 -2.10272)
(7.9975e-14 13.982 12.7)
(8.71783e-14 -6.6189 20.4067)
(6.08165e-14 -22.9399 11.5811)
(1.92545e-14 5.80009 -2.19001)
(-4.84819e-15 7.82156 8.35907)
(-4.52518e-15 4.88219 3.90077)
(-4.30548e-16 1.78063 6.34771)
(-4.16942e-16 -3.90838 1.73528)
(-2.59307e-16 -1.27403 0.68553)
(9.27604e-16 2.91405 0.297719)
(5.64653e-16 0.267444 1.54259)
(1.39988e-15 -2.87421 -0.241299)
(7.45867e-16 -2.01928 0.978291)
(3.13513e-16 2.33592 0.901687)
(5.30797e-16 2.41256 1.16734)
(4.12976e-16 -1.21441 -0.756563)
(1.82766e-16 -2.04559 -1.40391)
(-1.44687e-17 -1.91691 -0.631855)
(7.01744e-16 -1.02411 -3.57367)
(8.31362e-14 16.5454 18.8282)
(7.97959e-14 -7.71998 15.9677)
(5.57218e-14 -17.2889 11.5753)
(1.40831e-14 6.53326 -6.73294)
(-5.99074e-15 6.18344 8.72836)
(-3.80018e-15 5.00348 4.10682)
(1.69812e-16 1.91576 7.81512)
(8.65728e-16 -2.78087 4.44944)
(4.93227e-16 -0.776144 2.76258)
(1.54719e-16 2.20092 4.6435)
(4.19219e-16 0.809676 4.14059)
(1.09237e-15 -2.57811 1.55022)
(7.20933e-16 -2.10892 1.95896)
(5.50536e-16 2.08974 3.18486)
(7.00752e-16 2.42911 4.72548)
(4.63241e-16 -0.424227 2.62258)
(1.81884e-16 -1.79222 -0.577064)
(-7.71041e-17 -1.03958 -0.966147)
(-9.46381e-16 0.43381 -0.891226)
(8.75288e-14 6.13561 22.2746)
(7.131e-14 -6.51349 12.2427)
(5.17671e-14 -11.9994 10.9594)
(4.63983e-15 6.0526 -6.17239)
(-7.37924e-15 4.5255 9.4351)
(-2.58082e-15 4.83468 4.9715)
(5.1189e-16 1.70137 9.23398)
(1.50948e-15 -2.11826 7.13078)
(3.66625e-16 -0.855237 6.48245)
(-5.6401e-16 2.17617 7.58266)
(1.19587e-16 1.53089 6.98647)
(9.25691e-16 -2.14347 4.08951)
(7.76011e-16 -2.32464 3.2159)
(7.35292e-16 1.42701 6.46331)
(8.84483e-16 2.43154 9.21455)
(6.84853e-16 1.30374 7.82284)
(4.11854e-16 -0.348472 3.96134)
(5.97807e-16 -1.61411 3.54629)
(1.28354e-15 -5.06876 6.93375)
(9.57093e-14 3.90423 26.8625)
(6.08727e-14 -5.54006 8.60586)
(4.7352e-14 -7.55777 10.1283)
(2.21291e-15 5.20742 -5.35276)
(-6.86267e-15 3.13952 9.62076)
(-1.53587e-15 4.45612 6.0231)
(4.84965e-16 1.18456 10.5357)
(1.06281e-15 -1.86989 9.40048)
(-5.45762e-16 -0.862026 9.19872)
(-1.25071e-15 2.1703 9.17633)
(1.16454e-16 2.22136 9.12053)
(1.04386e-15 -1.34037 7.18144)
(7.66329e-16 -2.72249 5.77589)
(7.15166e-16 -0.147444 9.73105)
(7.37325e-16 1.63491 12.8349)
(8.92501e-16 1.34454 13.221)
(1.00215e-15 -0.229222 12.8554)
(1.16353e-15 -1.99109 11.6633)
(1.4791e-15 -4.0007 11.0767)
(1.02007e-13 -0.978656 30.2735)
(5.23062e-14 -3.79324 5.11948)
(4.32215e-14 -3.67502 9.46764)
(3.46953e-15 3.59069 -4.88028)
(-5.85693e-15 1.74788 9.43733)
(-9.22911e-16 3.75504 6.84449)
(6.95122e-17 0.530897 11.3933)
(5.14975e-18 -1.74339 10.7138)
(-1.69129e-15 -0.655207 10.065)
(-1.87511e-15 2.1816 9.25825)
(3.11007e-16 2.16548 10.4676)
(2.79214e-15 -1.12365 10.9329)
(7.4184e-16 -2.98138 9.70568)
(-2.16845e-16 -1.19497 10.8233)
(-1.29276e-15 1.14082 11.6617)
(-3.01209e-16 1.28822 11.7507)
(1.16618e-15 -0.0740579 11.7728)
(1.1757e-15 -1.48122 10.6462)
(7.18615e-16 -2.57321 7.59604)
(8.18346e-14 -2.60942 30.2856)
(3.45402e-14 -2.34645 1.8329)
(2.05727e-14 0.470498 9.26541)
(2.83277e-15 1.37371 -4.3217)
(-5.66408e-15 0.564598 9.2693)
(-9.66504e-16 2.90039 6.87849)
(1.3028e-15 -0.151066 11.3323)
(-1.31121e-15 -1.48823 10.7385)
(-2.19188e-15 -0.150176 9.34814)
(-2.38951e-15 2.06287 8.57612)
(-1.58177e-15 1.5271 11.0707)
(-1.26836e-16 -1.20199 12.8451)
(-5.56242e-16 -2.70659 12.2278)
(-3.08535e-15 -1.14658 11.7409)
(-4.94625e-15 1.18456 11.825)
(-3.87601e-15 1.54601 11.8444)
(-1.54264e-15 0.779372 10.7088)
(1.66591e-15 0.130667 7.66843)
(5.45768e-15 -0.417914 3.1082)
(3.21013e-14 -6.78288 27.9461)
(-8.32619e-15 -1.2172 3.4446)
(-8.65716e-15 4.43017 9.3922)
(-1.01547e-15 -0.970093 -5.89686)
(-5.93719e-15 -0.231614 9.11983)
(-2.88567e-15 2.27852 5.81721)
(-9.09392e-16 -0.745451 9.75046)
(-1.38148e-15 -1.11006 9.08687)
(-2.008e-15 0.298386 7.58207)
(-2.34795e-15 1.47506 7.95237)
(-2.65833e-15 0.398335 11.4978)
(-2.37584e-15 -1.59553 13.7079)
(-2.40138e-15 -2.4264 13.4377)
(-3.10811e-15 -0.897306 11.9782)
(-2.76653e-15 1.15989 10.313)
(-2.9816e-15 1.53752 11.2034)
(-3.43922e-15 1.10618 13.0614)
(-2.50481e-15 0.937442 12.3971)
(7.43947e-16 0.804893 9.17927)
(1.45964e-15 -8.68753 24.7136)
(-1.08349e-14 -0.390212 9.53357)
(-7.4326e-15 9.69071 9.56557)
(-5.76605e-16 -2.85835 -10.4833)
(-5.46573e-15 -1.84405 7.83255)
(-4.02729e-15 2.09457 4.15026)
(-1.14143e-15 -1.16967 6.86685)
(-1.47943e-15 -0.821397 6.64347)
(-1.9825e-15 0.358318 5.9097)
(-2.51756e-15 0.539448 7.11642)
(-3.15818e-15 -0.756787 10.2436)
(-3.16404e-15 -2.01423 11.9725)
(-2.56202e-15 -1.92297 10.7321)
(-1.36979e-15 0.105942 6.05202)
(-4.18917e-16 1.49772 2.25365)
(-1.07218e-15 0.418234 3.58238)
(-2.35206e-15 0.534828 7.2955)
(-2.96464e-15 2.61143 9.72881)
(-3.64859e-15 6.39668 12.9752)
(-1.04917e-14 -18.5829 21.8116)
(-8.32293e-15 0.670191 12.077)
(-7.77306e-15 15.8427 9.42257)
(-1.60051e-15 -3.18684 -11.7087)
(-4.76285e-15 -4.46873 4.97224)
(-6.32055e-15 2.02729 2.59093)
(-1.34748e-15 -1.52624 3.16594)
(-1.69401e-15 -0.901997 4.54814)
(-2.05589e-15 0.116443 4.65564)
(-2.41494e-15 -0.229046 5.61396)
(-2.96269e-15 -1.4552 7.493)
(-2.95121e-15 -1.85236 8.35928)
(-1.92488e-15 -0.189854 6.03014)
(-8.39549e-16 2.16013 1.89561)
(-3.87889e-16 2.19483 1.30179)
(-5.49954e-17 -0.244582 0.628612)
(-6.85405e-16 -1.12884 0.869835)
(1.17736e-16 -1.65745 -2.24367)
(-2.59959e-16 -2.53884 0.514098)
(-1.37152e-14 -15.3865 15.5987)
(-7.66319e-15 3.10382 16.1592)
(-7.6129e-15 22.632 8.17285)
(-3.4761e-15 -2.35119 -9.86293)
(-4.67708e-15 -6.95352 5.70649)
(-6.13023e-15 3.19722 1.02367)
(-3.5558e-15 -2.09758 -1.65836)
(-1.97447e-15 -1.63801 2.31931)
(-2.13731e-15 -0.0396664 3.58658)
(-2.11595e-15 -0.624986 3.74865)
(-2.44442e-15 -1.7311 4.49069)
(-2.63757e-15 -1.49326 4.67709)
(-1.82079e-15 0.814978 2.20086)
(-1.11013e-15 2.24023 0.556245)
(-3.77376e-16 2.09096 0.966426)
(-2.57321e-17 0.577873 0.489553)
(4.26397e-17 0.366825 -1.0114)
(-9.68947e-17 1.30238 0.0837663)
(6.35514e-16 0.856472 -2.05384)
(-1.46574e-14 -39.8935 11.9562)
(-7.75076e-15 -7.52355 10.3084)
(-7.44583e-15 28.2665 5.61086)
(-4.33966e-15 -2.90071 -2.65417)
(-4.31607e-15 -8.28325 7.9672)
(-2.85215e-15 5.45532 -1.05483)
(-4.98329e-15 -1.89698 -2.46526)
(-2.65555e-15 -3.24289 -0.564653)
(-2.28063e-15 -0.407088 2.70942)
(-1.86424e-15 -0.530742 2.34987)
(-1.75062e-15 -1.75536 2.13571)
(-2.326e-15 -1.19694 1.75627)
(-1.84613e-15 1.42861 -0.185121)
(-8.84829e-16 2.53521 -0.313151)
(-1.92925e-16 2.20094 0.164504)
(1.21243e-17 0.80558 0.194583)
(8.1481e-18 -0.0546265 -0.443645)
(1.3679e-17 0.296251 -0.247687)
(1.61848e-16 -0.170137 -0.755042)
(-1.49543e-14 -5.27902 0.938884)
(-7.69286e-15 13.7957 34.6087)
(-7.28369e-15 30.9856 1.46082)
(-3.70372e-15 -4.70577 8.86795)
(-3.81179e-15 -8.23413 7.8468)
(-5.33471e-16 7.2588 -2.42561)
(-2.55807e-15 -0.729277 -0.20491)
(-2.69968e-15 -3.95357 -2.30989)
(-2.48417e-15 -0.909394 0.903426)
(-1.83711e-15 -0.106173 1.43494)
(-1.13313e-15 -1.1373 0.62885)
(-1.67463e-15 -0.467779 -0.397738)
(-1.33519e-15 1.32061 -1.34247)
(-5.25033e-16 2.34445 -0.976534)
(-7.54234e-17 1.96354 -0.286428)
(1.22645e-17 0.770251 0.264743)
(-1.1305e-18 0.131535 0.0394126)
(-3.50845e-18 0.710856 -0.0673516)
(-6.19411e-18 0.49133 -0.294166)
(-1.10556e-14 -98.2453 13.2672)
(-1.49416e-14 -5.3341 -8.09733)
(-7.00914e-15 32.7302 -4.27777)
(-2.88869e-15 -5.42359 -0.577486)
(-3.52363e-15 -4.10814 6.45049)
(-9.42356e-17 7.74602 -1.98605)
(-1.67959e-15 -2.07079 3.67139)
(-2.55638e-15 -4.02029 -2.82019)
(-2.66357e-15 -2.44453 -0.970979)
(-2.48128e-15 -1.60796 -0.0363643)
(-1.24542e-15 -1.95972 -0.179022)
(-9.72388e-16 -0.904297 -1.31689)
(-5.98378e-16 1.09493 -1.79132)
(-1.74277e-16 2.02245 -1.33007)
(7.23065e-18 1.5713 -0.275046)
(5.46484e-18 0.537934 0.452125)
(-6.61135e-19 0.0793077 0.151377)
(9.66459e-19 0.470523 -0.0783967)
(-2.08329e-18 0.309087 0.0274628)
(-2.78411e-14 97.1387 -68.907)
(-1.01889e-14 -34.963 74.6402)
(-5.93539e-15 49.0046 -8.97364)
(-2.50032e-15 -3.69655 16.9948)
(-3.72303e-15 -10.0707 6.11787)
(-3.05011e-16 8.95873 -1.53367)
(-2.46206e-15 -1.43564 7.72923)
(-2.9549e-15 -2.3333 -2.78572)
(-2.78445e-15 -1.01275 -2.10406)
(-2.45009e-15 1.7271 -1.29223)
(-1.58354e-15 2.51807 -0.830989)
(-6.89294e-16 0.890029 -1.29994)
(-1.95773e-16 1.59843 -1.63614)
(-1.60918e-17 2.05054 -1.11828)
(1.044e-17 1.46321 0.175173)
(-1.27169e-18 0.700529 0.658411)
(8.04385e-20 0.517208 0.205467)
(3.28066e-20 0.741064 -0.0352826)
(6.30114e-19 0.76749 0.21327)
(4.29317e-14 -294.214 211.211)
(-6.11994e-15 54.0348 -70.9404)
(-3.979e-15 50.639 -5.93145)
(-2.08864e-15 -17.838 54.9558)
(-1.03893e-15 10.319 -11.0684)
(-2.0096e-16 8.78392 -1.89628)
(-1.57764e-15 0.389689 8.79042)
(-2.97079e-15 -0.63436 -0.649677)
(-4.18113e-15 -4.96336 -1.23988)
(-4.27127e-15 -5.29965 -4.51931)
(-2.14256e-15 -6.91609 -0.750608)
(-3.12851e-16 -1.4254 -0.846292)
(8.99374e-18 1.51324 -1.01684)
(9.54271e-18 2.1238 -0.352065)
(-4.52764e-19 1.50271 0.358838)
(-1.50697e-19 1.01331 0.356711)
(1.60336e-20 0.779091 0.104754)
(-8.56369e-20 0.812324 -0.0221827)
(1.2072e-19 0.856885 0.172984)
(1.29056e-16 5.45939 9.87367)
(-5.33678e-15 10.1384 17.226)
(-4.69183e-15 10.1549 17.073)
(-4.31504e-15 9.86832 16.355)
(-4.1573e-15 9.85781 16.1725)
(-6.13962e-15 9.91375 16.1038)
(-4.97004e-15 9.79455 15.7568)
(-4.21945e-15 9.78186 15.7553)
(-4.29153e-15 9.77483 15.7767)
(-4.37551e-15 9.75936 15.7834)
(-4.1646e-15 9.73046 15.7939)
(-4.41723e-15 9.70024 15.8092)
(-4.28471e-15 9.6709 15.8241)
(-4.23288e-15 9.63087 15.847)
(-4.39258e-15 9.60244 15.859)
(-4.45052e-15 9.54393 15.8779)
(-4.4141e-15 9.53145 15.892)
(-3.89827e-15 9.78338 16.4984)
(-4.13927e-15 9.99936 16.76)
(-6.86429e-15 5.57366 9.49842)
(4.3258e-17 5.07432 8.57917)
(-4.68284e-15 9.26985 15.9096)
(-3.67899e-15 8.97923 15.4995)
(-3.5356e-15 8.73445 15.0716)
(-3.41704e-15 8.72255 15.1245)
(-5.65429e-15 8.75788 15.163)
(-3.8292e-15 8.79801 15.275)
(-3.50987e-15 8.83525 15.2895)
(-3.7466e-15 8.84598 15.3169)
(-3.83969e-15 8.87114 15.3409)
(-3.5474e-15 8.88706 15.3683)
(-3.74195e-15 8.90332 15.394)
(-3.60131e-15 8.91988 15.4169)
(-4.02069e-15 8.92648 15.4443)
(-3.69538e-15 8.9461 15.4606)
(-4.14983e-15 8.93401 15.4814)
(-3.95414e-15 8.98074 15.5203)
(-3.37173e-15 9.26459 16.0856)
(-3.84966e-15 9.42195 16.3099)
(-6.42993e-15 5.07216 8.89798)
(2.9266e-18 5.60608 9.75617)
(-1.58451e-15 9.61314 16.4623)
(-1.17087e-15 9.27166 15.9829)
(-1.19273e-15 9.05246 15.5303)
(-9.64783e-16 9.01974 15.5185)
(-3.54779e-15 9.03804 15.5145)
(-2.05486e-15 9.01504 15.5031)
(-1.6875e-15 9.01736 15.5016)
(-1.51342e-15 9.00897 15.5081)
(-2.11301e-15 9.00906 15.5107)
(-1.75811e-15 9.00352 15.5173)
(-1.77407e-15 9.00054 15.5246)
(-1.64669e-15 8.99891 15.5317)
(-1.88132e-15 8.99152 15.5443)
(-1.78039e-15 8.99543 15.5497)
(-1.75929e-15 8.97488 15.5603)
(-1.8971e-15 9.00003 15.5779)
(-1.75843e-15 9.24353 16.0894)
(-2.05182e-15 9.49731 16.4723)
(-2.98342e-15 5.3957 9.5156)
(-2.48296e-18 5.66456 9.77935)
(3.89362e-16 9.48255 16.2942)
(3.17454e-16 9.09434 15.7112)
(2.73077e-16 8.89644 15.3275)
(2.58715e-16 8.87709 15.3439)
(-2.19748e-15 8.89594 15.3509)
(-2.03778e-15 8.88794 15.3687)
(-1.51129e-15 8.89769 15.3714)
(-1.54881e-15 8.89234 15.382)
(-2.05554e-15 8.8975 15.3874)
(-1.69587e-15 8.89586 15.3963)
(-1.86615e-15 8.89725 15.4041)
(-1.94735e-15 8.89884 15.4113)
(-1.74086e-15 8.89578 15.4221)
(-1.72963e-15 8.90188 15.4265)
(-1.49734e-15 8.88733 15.4347)
(-1.89257e-15 8.90793 15.4437)
(-1.91751e-15 9.12219 15.8815)
(-1.87419e-15 9.4402 16.3982)
(-2.80885e-15 5.58151 9.79539)
(9.4764e-19 5.88355 10.1887)
(-8.86902e-17 9.52078 16.3515)
(-7.5195e-17 9.09814 15.7201)
(-7.11221e-17 8.91878 15.36)
(-6.9542e-17 8.89725 15.3716)
(4.80013e-16 8.91233 15.3737)
(4.42008e-16 8.89961 15.3822)
(3.952e-16 8.90488 15.3824)
(3.66482e-16 8.89749 15.3897)
(4.73424e-16 8.8993 15.3925)
(4.04593e-16 8.89515 15.3985)
(4.13375e-16 8.89427 15.4035)
(3.86068e-16 8.89334 15.4083)
(4.27405e-16 8.88914 15.4161)
(4.11178e-16 8.89286 15.4187)
(4.20137e-16 8.87942 15.4252)
(4.39603e-16 8.89346 15.4255)
(3.98525e-16 9.07379 15.798)
(4.57459e-16 9.45358 16.4187)
(6.72192e-16 5.84437 10.2539)
(-3.143e-19 6.04213 10.4431)
(2.05741e-17 9.49039 16.3073)
(1.73048e-17 9.04241 15.6212)
(1.71767e-17 8.88116 15.3005)
(1.79713e-17 8.86452 15.3162)
(-1.12602e-16 8.87857 15.3194)
(-9.86319e-17 8.86809 15.3295)
(-9.38422e-17 8.87377 15.3307)
(-8.70981e-17 8.86741 15.3384)
(-1.07941e-16 8.8698 15.3417)
(-9.98576e-17 8.86629 15.3481)
(-9.64006e-17 8.86622 15.3531)
(-8.7174e-17 8.86542 15.3583)
(-9.67712e-17 8.8624 15.3657)
(-9.57272e-17 8.86568 15.3688)
(-1.01305e-16 8.85486 15.3756)
(-1.01324e-16 8.86482 15.3724)
(-8.78366e-17 9.01739 15.6883)
(-1.08266e-16 9.43757 16.3841)
(-1.42653e-16 6.06849 10.6273)
(9.68285e-20 6.23151 10.7693)
(-4.89253e-18 9.48106 16.2916)
(-4.06369e-18 9.00984 15.5639)
(-4.05747e-18 8.86834 15.2786)
(-4.43121e-18 8.85348 15.2951)
(2.58313e-17 8.86596 15.2972)
(2.3134e-17 8.85572 15.306)
(2.15953e-17 8.86055 15.307)
(2.18598e-17 8.85437 15.3139)
(2.413e-17 8.8563 15.3167)
(2.31753e-17 8.85266 15.3226)
(2.34488e-17 8.85261 15.327)
(2.10588e-17 8.85131 15.3319)
(2.23903e-17 8.84889 15.3383)
(2.3285e-17 8.85124 15.3415)
(2.28099e-17 8.84228 15.348)
(2.30536e-17 8.84925 15.3428)
(2.04672e-17 8.9783 15.6118)
(2.4634e-17 9.4239 16.3531)
(3.06042e-17 6.28119 10.9898)
(-2.79097e-20 6.4136 11.0759)
(1.17034e-18 9.45571 16.2523)
(9.77015e-19 8.96912 15.4922)
(9.58834e-19 8.84712 15.244)
(1.05597e-18 8.83471 15.2616)
(-6.00025e-18 8.84602 15.2635)
(-5.50643e-18 8.83677 15.2721)
(-5.02695e-18 8.84128 15.2734)
(-5.38964e-18 8.83572 15.2802)
(-5.40148e-18 8.83763 15.2831)
(-5.32786e-18 8.83425 15.289)
(-5.69836e-18 8.83456 15.2933)
(-5.06306e-18 8.83308 15.2985)
(-5.32095e-18 8.83149 15.3044)
(-5.66126e-18 8.83311 15.3082)
(-5.22311e-18 8.8261 15.3147)
(-5.29402e-18 8.83077 15.3092)
(-4.93221e-18 8.93998 15.5379)
(-5.62598e-18 9.39915 16.3064)
(-6.83886e-18 6.4763 11.3218)
(7.63375e-21 6.60079 11.3948)
(-2.77658e-19 9.42876 16.2098)
(-2.3636e-19 8.93319 15.4299)
(-2.275e-19 8.83032 15.217)
(-2.46523e-19 8.81952 15.2349)
(1.42232e-18 8.82961 15.2364)
(1.30303e-18 8.82108 15.2443)
(1.21102e-18 8.82508 15.2457)
(1.2825e-18 8.81998 15.2521)
(1.25015e-18 8.82169 15.255)
(1.24731e-18 8.81846 15.2607)
(1.3508e-18 8.81893 15.2647)
(1.20434e-18 8.81719 15.27)
(1.28124e-18 8.81628 15.2754)
(1.36638e-18 8.81706 15.2796)
(1.23501e-18 8.81177 15.2858)
(1.24093e-18 8.81451 15.2805)
(1.19711e-18 8.90617 15.4734)
(1.31012e-18 9.36972 16.2534)
(1.57061e-18 6.66434 11.6441)
(-2.01366e-21 6.78615 11.7097)
(6.51732e-20 9.39424 16.1551)
(5.69111e-20 8.8977 15.3686)
(5.41559e-20 8.81283 15.1894)
(5.6873e-20 8.80342 15.207)
(-3.38136e-19 8.8124 15.2082)
(-3.06928e-19 8.80467 15.2157)
(-2.99349e-19 8.80822 15.2173)
(-2.99168e-19 8.80365 15.2234)
(-3.00203e-19 8.80517 15.2264)
(-2.9871e-19 8.80219 15.232)
(-3.16725e-19 8.80281 15.2358)
(-2.84681e-19 8.80088 15.2412)
(-3.05364e-19 8.80063 15.2461)
(-3.27321e-19 8.80062 15.2509)
(-2.9532e-19 8.797 15.2566)
(-2.96725e-19 8.79808 15.2523)
(-2.87179e-19 8.87419 15.4128)
(-3.09903e-19 9.33389 16.1907)
(-3.59175e-19 6.84719 11.9577)
(5.18412e-22 6.9713 12.0249)
(-1.51919e-20 9.35471 16.0918)
(-1.35626e-20 8.86494 15.3121)
(-1.29041e-20 8.79672 15.1642)
(-1.30881e-20 8.78833 15.181)
(7.98751e-20 8.79624 15.1821)
(7.25418e-20 8.78926 15.1891)
(7.39267e-20 8.79232 15.1909)
(6.95076e-20 8.78826 15.1966)
(7.315e-20 8.78953 15.1996)
(7.23364e-20 8.7868 15.205)
(7.42412e-20 8.78748 15.2086)
(6.71495e-20 8.78541 15.2141)
(7.15167e-20 8.78573 15.2185)
(7.78974e-20 8.78494 15.2237)
(7.04528e-20 8.78288 15.229)
(7.13209e-20 8.7825 15.226)
(6.80773e-20 8.84477 15.357)
(7.38955e-20 9.2928 16.1194)
(8.09479e-20 7.0276 12.2676)
(-1.31349e-22 7.15509 12.3377)
(3.53152e-21 9.30927 16.0185)
(3.19452e-21 8.83427 15.2594)
(3.06924e-21 8.78113 15.1399)
(3.03614e-21 8.77352 15.1557)
(-1.87987e-20 8.78045 15.1566)
(-1.72307e-20 8.77421 15.1631)
(-1.78954e-20 8.7768 15.1651)
(-1.62312e-20 8.77327 15.1705)
(-1.76848e-20 8.77425 15.1736)
(-1.7466e-20 8.77183 15.1787)
(-1.73907e-20 8.77251 15.1823)
(-1.58772e-20 8.77038 15.1878)
(-1.65838e-20 8.77118 15.1918)
(-1.83999e-20 8.76969 15.1974)
(-1.6763e-20 8.7691 15.2021)
(-1.70078e-20 8.76742 15.2007)
(-1.60922e-20 8.81755 15.305)
(-1.77154e-20 9.2462 16.0391)
(-1.81602e-20 7.20623 12.5744)
(3.3042e-23 7.33781 12.6487)
(-8.21912e-22 9.25839 15.9358)
(-7.46378e-22 8.8061 15.2109)
(-7.2821e-22 8.76636 15.1171)
(-7.14425e-22 8.75934 15.1314)
(4.43866e-21 8.76536 15.1324)
(4.08603e-21 8.75983 15.1384)
(4.23269e-21 8.76195 15.1406)
(3.82035e-21 8.75895 15.1456)
(4.20202e-21 8.75962 15.1488)
(4.17067e-21 8.75754 15.1536)
(4.07147e-21 8.75814 15.1572)
(3.77248e-21 8.75603 15.1626)
(3.84643e-21 8.75722 15.1663)
(4.30524e-21 8.75511 15.1722)
(3.98488e-21 8.75588 15.1763)
(4.01041e-21 8.75302 15.1767)
(3.81857e-21 8.79272 15.2572)
(4.27863e-21 9.19427 15.9497)
(4.11538e-21 7.38364 12.879)
(-8.32414e-24 7.51934 12.9575)
(1.92392e-22 9.20191 15.8434)
(1.74297e-22 8.7803 15.1666)
(1.72744e-22 8.75222 15.0953)
(1.70182e-22 8.74564 15.1081)
(-1.0557e-21 8.75084 15.1091)
(-9.60792e-22 8.74601 15.1147)
(-9.86041e-22 8.74766 15.117)
(-9.05255e-22 8.7452 15.1216)
(-9.8355e-22 8.74554 15.1249)
(-9.84e-22 8.74385 15.1295)
(-9.56381e-22 8.7443 15.133)
(-9.01037e-22 8.74232 15.1383)
(-8.97229e-22 8.74375 15.1417)
(-9.99207e-22 8.74117 15.1479)
(-9.45206e-22 8.74314 15.1514)
(-9.38293e-22 8.73922 15.1537)
(-9.10022e-22 8.77023 15.2133)
(-1.04311e-21 9.13694 15.8513)
(-9.48991e-22 7.55997 13.1815)
(2.10821e-24 7.69989 13.2645)
(-4.54576e-23 9.13992 15.7414)
(-4.10095e-23 8.75695 15.1265)
(-4.11037e-23 8.73877 15.0745)
(-4.07367e-23 8.73251 15.0858)
(2.52521e-22 8.73697 15.0868)
(2.23925e-22 8.73282 15.0919)
(2.28924e-22 8.73398 15.0945)
(2.15475e-22 8.73205 15.0987)
(2.28635e-22 8.73206 15.1021)
(2.30279e-22 8.73077 15.1064)
(2.25848e-22 8.73101 15.1099)
(2.16151e-22 8.72928 15.115)
(2.10683e-22 8.73077 15.1183)
(2.31508e-22 8.72791 15.1246)
(2.23307e-22 8.73088 15.1275)
(2.18843e-22 8.726 15.1316)
(2.1713e-22 8.75007 15.1733)
(2.56368e-22 9.07421 15.7438)
(2.21991e-22 7.7353 13.4819)
(-5.3505e-25 7.87976 13.5702)
(1.08369e-23 9.0725 15.6298)
(9.76745e-24 8.73614 15.0909)
(9.82166e-24 8.72618 15.055)
(9.7419e-24 8.72014 15.0647)
(-6.04333e-23 8.72388 15.0658)
(-5.20262e-23 8.72045 15.0704)
(-5.34785e-23 8.7211 15.0731)
(-5.1456e-23 8.71966 15.077)
(-5.32351e-23 8.71937 15.0804)
(-5.37323e-23 8.71842 15.0844)
(-5.34457e-23 8.71839 15.088)
(-5.19574e-23 8.71701 15.0927)
(-4.97723e-23 8.71831 15.096)
(-5.39898e-23 8.71547 15.1022)
(-5.25766e-23 8.71909 15.1046)
(-5.10357e-23 8.71341 15.1105)
(-5.17291e-23 8.73225 15.1373)
(-6.32273e-23 9.00612 15.6274)
(-5.22039e-23 7.90969 13.7798)
(1.3511e-25 8.05937 13.8752)
(-2.59391e-24 8.99947 15.5081)
(-2.35447e-24 8.7178 15.0597)
(-2.35198e-24 8.71455 15.0366)
(-2.32756e-24 8.70877 15.0447)
(1.44024e-23 8.71173 15.0461)
(1.21455e-23 8.70916 15.0501)
(1.26218e-23 8.70929 15.053)
(1.23212e-23 8.7083 15.0564)
(1.24829e-23 8.70781 15.0598)
(1.25499e-23 8.70712 15.0635)
(1.26061e-23 8.70686 15.0672)
(1.24671e-23 8.70587 15.0715)
(1.18239e-23 8.70673 15.0749)
(1.27369e-23 8.70427 15.0809)
(1.23712e-23 8.70799 15.0831)
(1.19184e-23 8.70175 15.0904)
(1.22978e-23 8.71697 15.1052)
(1.55556e-23 8.93308 15.5027)
(1.22345e-23 8.08318 14.0752)
(-3.37237e-26 8.23966 14.1804)
(6.18989e-25 8.92059 15.3748)
(5.71675e-25 8.70165 15.0324)
(5.61984e-25 8.70362 15.0189)
(5.57702e-25 8.6985 15.0253)
(-3.40957e-24 8.70034 15.0269)
(-2.86355e-24 8.69873 15.0302)
(-3.00251e-24 8.69839 15.033)
(-2.95302e-24 8.6977 15.0361)
(-2.94897e-24 8.69712 15.0394)
(-2.93774e-24 8.69657 15.0428)
(-2.95349e-24 8.69617 15.0463)
(-2.97426e-24 8.69556 15.0503)
(-2.81987e-24 8.69586 15.054)
(-3.03429e-24 8.69426 15.0594)
(-2.91588e-24 8.69725 15.0619)
(-2.78905e-24 8.69129 15.07)
(-2.91784e-24 8.70425 15.0762)
(-3.79734e-24 8.85558 15.3705)
(-2.84479e-24 8.25515 14.3662)
(8.38295e-27 8.42319 14.4926)
(-1.47956e-25 8.83808 15.2311)
(-1.4052e-25 8.69069 15.012)
(-1.34823e-25 8.69522 15.0051)
(-1.35928e-25 8.69182 15.0089)
(8.11113e-25 8.69212 15.0105)
(6.89746e-25 8.69115 15.0126)
(7.23326e-25 8.69035 15.0148)
(7.14006e-25 8.68951 15.0171)
(7.07178e-25 8.68862 15.0197)
(6.96122e-25 8.68775 15.0224)
(6.94579e-25 8.68689 15.0254)
(7.11316e-25 8.68605 15.0287)
(6.80441e-25 8.68543 15.0321)
(7.33477e-25 8.68433 15.0364)
(6.95823e-25 8.68532 15.0397)
(6.6088e-25 8.68103 15.0469)
(6.9841e-25 8.69107 15.0483)
(9.2598e-25 8.77265 15.2324)
(6.61621e-25 8.42326 14.6449)
(-1.7387e-27 8.61058 14.8239)
(2.93356e-26 8.7527 15.0801)
(2.89212e-26 8.69281 15.0032)
(2.69447e-26 8.695 15.0014)
(2.8221e-26 8.69442 15.0021)
(-1.61151e-25 8.69407 15.0026)
(-1.41318e-25 8.69366 15.0031)
(-1.45537e-25 8.69305 15.0038)
(-1.44442e-25 8.69232 15.0046)
(-1.42592e-25 8.69143 15.0056)
(-1.38837e-25 8.69038 15.0067)
(-1.37465e-25 8.68914 15.008)
(-1.42146e-25 8.68772 15.0095)
(-1.37669e-25 8.68604 15.0113)
(-1.4856e-25 8.68417 15.0133)
(-1.40175e-25 8.68208 15.0156)
(-1.32486e-25 8.67892 15.0189)
(-1.40641e-25 8.67938 15.02)
(-1.87827e-25 8.69418 15.0844)
(-1.28438e-25 8.5934 14.8933)
(-5.99648e-27 -2.57515 16.9777)
(-5.03264e-26 -8.03385 13.6102)
(-5.03873e-26 -5.17322 14.4583)
(3.70056e-25 -4.9933 14.063)
(1.56056e-24 -4.07998 14.0178)
(1.68207e-24 -3.52294 13.8389)
(-6.08438e-24 -2.95377 13.6757)
(-2.78614e-23 -2.4891 13.4819)
(-4.1321e-23 -2.08842 13.2769)
(4.35654e-23 -1.76814 13.0669)
(3.61683e-22 -1.52934 12.8654)
(9.13068e-22 -1.37753 12.6776)
(1.30833e-21 -1.30995 12.4915)
(8.38662e-22 -1.32655 12.2694)
(-8.17066e-22 -1.43231 11.9565)
(-2.82706e-21 -1.5881 11.5312)
(-3.6483e-21 -1.81395 10.9549)
(-2.70703e-21 -2.40286 9.96594)
(-1.0993e-21 -2.56847 8.54396)
(-4.39953e-23 0.237181 6.46209)
(-5.65157e-27 -11.1724 28.376)
(-7.50277e-26 -16.901 24.9414)
(-5.20846e-26 -11.9323 25.3291)
(1.02211e-24 -12.5145 23.6577)
(2.80428e-24 -10.7611 22.9378)
(-2.58591e-25 -10.0498 21.8809)
(-1.26878e-23 -9.01369 20.9985)
(-1.47089e-23 -8.18904 20.087)
(3.10693e-23 -7.36659 19.2244)
(5.78166e-23 -6.61849 18.3716)
(-2.49299e-22 -5.89536 17.5035)
(-1.15545e-21 -5.1761 16.5416)
(-1.86557e-21 -4.42637 15.39)
(1.47187e-22 -3.65254 13.9556)
(7.60925e-21 -2.91717 12.1692)
(1.9595e-20 -2.28662 10.0485)
(2.91178e-20 -1.74779 7.71084)
(2.96204e-20 -1.17858 5.0315)
(2.18071e-20 -0.300764 1.79663)
(8.7452e-22 0.414464 -0.549366)
(6.03893e-28 -14.3345 30.8142)
(-2.26364e-25 -18.166 27.9855)
(-2.39528e-25 -13.5666 27.8674)
(1.71519e-24 -14.412 25.5819)
(5.1213e-24 -12.3705 24.669)
(-2.19427e-25 -11.8808 23.14)
(-2.40104e-23 -10.7842 21.9807)
(-2.81857e-23 -10.0526 20.7429)
(8.54889e-23 -9.2605 19.6211)
(2.42606e-22 -8.56691 18.5062)
(-3.74137e-22 -7.84296 17.3398)
(-3.3905e-21 -7.00672 15.9073)
(-8.06708e-21 -5.83701 13.8435)
(-3.44361e-21 -4.05104 10.6115)
(2.99171e-20 -1.58531 6.02818)
(8.40779e-20 0.838653 1.26413)
(1.09925e-19 2.28719 -1.91859)
(1.07437e-19 3.20177 -3.92453)