/*--------------------------------*- C++ -*----------------------------------*\
| =========                 |                                                 |
| \\      /  F ield         | OpenFOAM: The Open Source CFD Toolbox           |
|  \\    /   O peration     | Version:  4.1                                   |
|   \\  /    A nd           | Web:      www.OpenFOAM.org                      |
|    \\/     M anipulation  |                                                 |
\*---------------------------------------------------------------------------*/
FoamFile
{
    version     2.0;
    format      ascii;
    class       volScalarField;
    location    "16";
    object      p;
}
// * * * * * * * * * * * * * * * * * * * * * * * * * * * * * * * * * * * * * //

dimensions      [0 2 -2 0 0 0 0];

internalField   nonuniform List<scalar> 
1280
(
-109.135
-3.68656
-44.3243
-160.821
13.2164
-83.2764
-191.683
-182.146
-86.6675
-145.912
-345.319
-171.052
-284.856
-590.3
-366.317
-626.5
-1060.35
-1134.94
-1048.9
-2905.75
-1339.42
311.471
1177.53
1674.31
1619.54
2151.99
-2471.86
-59.3947
22.9625
-139.084
-235.399
-350.909
-491.242
-667.246
-839.64
-1013.87
-1039.72
-1011.23
-728.389
-995.11
-4917.15
-2410.41
-1291.29
-804.06
1260.79
766.644
1039.34
1380.06
1692.37
1779.77
1891.27
1800.13
1904.49
1899.85
1844.2
2303.3
650.089
473.837
-222.762
-3358.98
1858.78
2052.06
1624.19
1253.96
829.445
589.564
410.709
334.733
283.489
250.165
205.85
72.2182
-78.6212
-1630.62
1265.04
669.617
652.968
282.718
161.59
-1011.29
-2752.27
-905.358
-780.386
-530.866
-332.413
1.81443
-9.37002
76.7447
186.477
195.12
204.727
235.918
242.547
227.733
218.241
204.073
164.039
111.147
50.5304
57.3467
-73.4942
-58.8784
-29.5187
20.8827
105.222
221.841
367.698
-23.4385
37.3889
-11.2272
-186.862
-566.17
-394.887
-80.7379
70.3883
103.181
44.433
28.602
59.5103
-49.6429
9.02345
58.8012
179.692
314.4
504.506
745.973
220.772
154.014
-56.1676
-521.801
-871.119
-517.866
29.5465
241.321
249.797
100.915
68.7579
156.695
-23.0578
38.1837
94.311
230.131
386.377
578.861
831.967
339.721
220.165
-41.2239
-802.79
-931.749
-627.67
93.7281
387.695
405.723
168.784
95.3634
237.228
-15.0468
54.6038
123.796
283.331
489.23
789.437
876.227
466.376
299.682
-21.0029
-907.333
-925.096
-740.987
153.996
556.443
569.208
232.554
133.965
339.14
-8.5928
70.1331
151.755
332.504
591.969
1109.07
924.473
564.74
359.86
59.2187
-913.006
-945.646
-803.839
203.881
717.565
724.224
244.697
120.03
418.394
-6.3605
75.1476
168.028
359.608
654.382
1350.1
999.136
632.644
365.717
-53.3586
-820.495
-961.135
-840.304
199.071
874.485
818.414
281.191
207.772
464.79
-8.04872
68.8292
172.672
364.161
672.22
1389.33
1008.81
647.051
347.414
-141.984
-613.212
-881.472
-849.75
126.139
966.734
918.839
167.915
161.693
633.203
-12.4915
50.1068
164.707
343.552
642.883
1238.32
878.969
520.563
245.561
7.6976
-432.429
-858.188
-803.04
-22.9485
952.885
1099.98
388.274
339.619
1333.97
-18.6797
17.7589
143.358
295.703
543.641
936.02
522.53
234.553
55.7778
40.9662
-135.358
-568.062
-614.71
-164.091
526.229
744.206
566.333
1251.75
5189.95
-24.0824
-27.0783
110.53
230.577
422.121
666.868
96.2789
-38.0659
-18.1526
162.103
117.137
-238.94
-299.604
-114.627
210.142
273.408
299.617
886.173
4175.39
-25.6163
-79.9303
69.9805
157.686
295.943
422.593
-321.869
-235.451
8.81006
297.327
329.626
1.07695
-63.5729
-39.516
14.2561
19.4349
353.102
1075.7
4430.26
-22.1881
-136.573
24.0015
82.9498
179.517
226.149
-595.855
-365.869
110.152
380.137
404.052
135.806
47.5189
-53.558
-217.528
-424.217
-126.606
599.801
4696.43
-14.5913
-188.759
-20.4056
15.6443
85.0228
89.2212
-692.968
-507.257
180.742
399.352
387.66
208.691
75.4068
-137.036
-454.284
-737.37
-307.142
703.998
1822.59
-7.56285
-235.419
-66.3527
-45.3797
12.4976
-2.39494
-616.019
-576.319
205.049
386.423
326.307
246.918
93.6202
-225.053
-579.302
-750.721
-297.83
420.535
393.13
-7.55141
-255.234
-97.4636
-84.3782
-25.0135
-55.3172
-412.041
-518.976
230.454
386.166
300.288
221.288
19.1496
-311.665
-569.989
-737.878
-277.356
289.641
314.627
-30.6173
-256.58
-140.822
-127.98
-46.7142
-100.547
-150.316
-421.912
248.26
395.506
283.839
163.327
-23.9788
-288.038
-476.809
-584.028
-176.986
134.718
311.844
-61.5791
-187.842
-121.145
-95.1176
3.6176
-151.359
-51.3277
-329.602
224.387
397.825
246.959
122.565
-35.5894
-219.749
-355.709
-395.794
-135.495
85.7042
255.092
-75.4905
-112.459
-111.068
-87.3309
-3.0916
-202.379
-157.153
-177.288
185.817
370.226
187.668
87.4333
-49.0861
-169.228
-253.338
-253.093
-97.5676
45.0472
183.318
-63.5161
-11.1952
25.6814
87.7001
116.623
19.6495
-233.49
-94.3284
154.652
308.014
120.016
61.4072
-38.0059
-109.945
-171.894
-172.448
-69.715
29.8042
128.894
-14.1611
1.45478
-48.3076
-120.291
-161.778
-10.4203
-127.014
-36.3851
76.9517
147.382
23.8865
10.9151
-19.3001
-38.3626
-68.6784
-66.4881
-15.7795
11.6891
76.913
9504.04
9569.15
9474.45
9421.27
9247.31
9095.74
8898.27
8707.83
8512.17
8339.95
8183.65
8046.37
7930.5
7833.01
7756.14
7691.93
7646.05
7604.29
7586.1
7506.76
4845.97
5105.47
5172.05
5339.47
5428.27
5543.64
5635.27
5725.24
5808.93
5886.86
5960.94
6032.03
6101.19
6171.82
6243.22
6324.28
6404.68
6507.54
6577.92
6678.2
4134.44
4343.2
4402.25
4547.41
4641.15
4747.72
4844.49
4937.92
5027.63
5113.96
5197.55
5279.87
5360.06
5441.59
5520.21
5605.54
5683.12
5780.73
5845.23
5953.66
1409.04
1682.6
1772.33
1932.82
2076.32
2220.2
2371.71
2519.27
2671.61
2825.17
2982.44
3145.1
3312.05
3487.31
3664.09
3852.28
4029.82
4221.21
4355.3
4569.44
-959.168
-885.271
-849.993
-855.062
-819.633
-823.185
-808.145
-811.742
-805.08
-796.344
-775.545
-740.209
-686.523
-604.491
-494.588
-326.351
-117.63
201.719
434.562
779.634
-1388.49
-1739.91
-1788.86
-2011.61
-2155.16
-2364.24
-2541.65
-2726.58
-2874.52
-3002.52
-3100
-3173.97
-3223.96
-3253.64
-3270.37
-3271.85
-3253.56
-3193.59
-3138.91
-2854.17
2898.86
2342.24
2144.96
1758.84
1447.48
1050.83
667.409
263.558
-107.596
-456.079
-754.133
-1000.37
-1174.42
-1267.6
-1269.51
-1206.01
-1116.8
-987.17
-1002.56
-1157.68
8252.7
8032.21
7963.75
7840.37
7764.08
7649.73
7552.45
7425.18
7300.66
7142.93
6961.53
6730.55
6447.66
6115.44
5776.12
5477.56
5263.71
5218.41
5265.71
4893.49
8005.47
8053.6
8061.73
8063.16
8088.1
8089.42
8107.68
8068.42
8029.43
7948.34
7858.94
7750.55
7639.9
7533.35
7449.41
7398.98
7380.02
7334.22
7333.31
7220.27
7300.34
7447.66
7515.15
7582.55
7694.95
7759.11
7881.3
7949.05
8039.76
8087.58
8118.48
8106
8057.77
7982.16
7920.53
7912.21
7972.48
8058.12
8124.58
8149.99
5596.5
5759.58
5841.42
5888.25
6031.91
6063.11
6191.31
6249.68
6350.25
6430.02
6519.25
6605.87
6691.59
6776.63
6858.96
6948.18
7036.15
7145.73
7224.19
7336.4
4058.79
4211.28
4349.63
4380.06
4579.57
4607.02
4776.44
4845.76
4975.14
5071.16
5180.25
5282.98
5384.93
5487.32
5585.82
5690.07
5784.28
5897.25
5973.06
6090.26
1995.26
2065.65
2260.38
2238.55
2482.32
2484.59
2694.47
2767.71
2940.18
3067.37
3226.47
3380.41
3540.99
3706.17
3868.24
4037.99
4191.93
4375.02
4510.17
4744.86
244.078
71.2383
179.634
-24.5741
78.1205
-112.573
-65.4253
-198.858
-204.3
-283.824
-309.106
-339.611
-328.256
-268.706
-158.364
6.09715
184.831
405.063
558.752
877.723
1917.67
1578.07
1600.04
1265.6
1243.83
926.179
821.177
532.126
340.77
54.0945
-207.995
-507.06
-786.403
-1041.54
-1249.25
-1404.36
-1500.21
-1530.22
-1579.91
-1441.51
4871.85
4569.4
4671.29
4351.46
4463.42
4227.54
4263.8
4126.83
4105.89
4022.9
3978.42
3914.13
3856.64
3783.51
3694.93
3577.21
3415.16
3229.04
3019.73
2730.44
6601.69
6373.42
6566.84
6160.6
6313.67
6044.36
6068.29
5937.03
5915.73
5861.94
5849.58
5841.98
5854.32
5876.09
5906.82
5939.97
5963.07
5944.95
5928.41
5853.73
5660.41
5312.79
5919.94
5407.61
5656.28
5387.75
5368.52
5198.29
5088.61
4946.56
4823.11
4703.07
4599.74
4512.22
4443.55
4388.33
4346.62
4355.03
4427.37
4634.98
4475.22
2828.33
3585.75
2650.51
2588.98
2076.27
1784.88
1420.84
1131.27
864.087
651.774
490.317
391.542
360.07
404.693
533.975
737.015
1011.34
1354.51
1682.6
57227.2
50725.7
47271.8
42947.6
39341.9
35780.9
32508.2
29403.3
26489.9
23737.1
21135.1
18667.5
16319.1
14073.7
11934
9870.05
7807.1
6066.72
4397.52
1548.49
54923.7
48421.7
44967.7
40643.3
37037.4
33476.3
30203.4
27098.4
24184.9
21432.2
18830.3
16362.8
14014.9
11769.8
9630.66
7566.97
5504.25
3765.07
2097.35
-750.413
2163.16
515.644
1272.61
336.859
274.613
-238.661
-530.718
-895.261
-1185.29
-1452.77
-1665.26
-1826.77
-1925.57
-1957.09
-1912.71
-1783.94
-1581.62
-1307.9
-966.674
-638.818
3345.71
2999.61
3606.86
3095.62
3344.73
3077.26
3058.78
2889.72
2781.15
2640.51
2518.55
2400.16
2298.48
2212.44
2144.38
2088.85
2046.66
2058.5
2134.97
2346.47
4322.85
4100.87
4296.3
3894.22
4050.06
3783.99
3810.54
3681.91
3662.78
3610.88
3599.9
3593.19
3605.89
3627.66
3658.2
3691.55
3716.09
3698.23
3680.19
3609.57
2707.32
2410.6
2515.28
2198.8
2313.99
2080.12
2118.51
1982.69
1962.4
1879.42
1834.09
1768.24
1708.21
1631.72
1538.9
1417.13
1253.16
1068.62
864.805
572.083
-186.957
-520.894
-495.891
-824.615
-847.252
-1164.34
-1271.61
-1563.15
-1757.64
-2048.01
-2313.62
-2615.9
-2896.84
-3151.71
-3357.23
-3508.62
-3600.12
-3629.95
-3677.86
-3549.53
-1683.96
-1813.47
-1719.42
-1992.22
-1905.71
-2147.93
-2126.2
-2294.7
-2324.64
-2427.03
-2473.75
-2522.16
-2523.87
-2473.3
-2368.38
-2207.89
-2031.77
-1813.92
-1660.21
-1343.74
364.243
425.554
672.054
535.012
697.935
654.012
760.131
787.559
892.436
985.033
1115.74
1248.2
1393.94
1549.58
1705.17
1869.81
2020.87
2199.22
2332.71
2555.15
2109.7
2324.61
2418.25
2437.26
2484.7
2502.89
2542.07
2576
2630.47
2704.62
2805.63
2908.7
3008.99
3109.05
3204.04
3300.82
3385.66
3480.04
3541.31
3625.49
3207.35
3371.32
3390.54
3434.06
3451.91
3483.18
3521.47
3570.34
3630.63
3702.48
3777.7
3857.34
3935.87
4010.94
4076.99
4141.65
4200.11
4270.54
4318.09
4388.9
4250.55
4363.58
4373.47
4424.1
4465.8
4522.41
4580.15
4648.64
4690.35
4755.34
4841.82
4904.72
4913.91
4871.53
4810.76
4777.93
4794.35
4844.57
4878.94
4903.54
5235.34
5203.3
5151.07
5132.03
5119.76
5114.07
5115.72
5104.01
5010.59
4937
4900.75
4818.77
4729.4
4635.64
4562.91
4525.51
4523.54
4528.73
4553.35
4496.58
4203.13
3981.9
3924.99
3854.36
3821.33
3782.23
3741.66
3670.03
3714.72
3862.5
3871.55
3819.76
3787.82
3704.4
3610.59
3514.33
3462.86
3489.51
3494.07
3230.18
1510.51
1215.86
1150.61
996.725
861.5
678.339
461.176
193.726
-73.2459
-386.753
-761.317
-1135.53
-1511.27
-1817.12
-2002.34
-2067.42
-2023.86
-1956.34
-1952.42
-1847.45
-784.952
-823.771
-820.931
-884.191
-961.258
-1080.44
-1223
-1382.95
-1539.64
-1682.67
-1787.09
-1778.32
-1690.7
-1507.77
-1255.43
-952.603
-652.107
-301.146
-72.2537
339.696
2476.97
2740.16
2867.79
3029.4
3177.87
3335.27
3508.89
3700.1
3900.57
4107.39
4320.27
4542.89
4766.25
4994.85
5212.64
5435.31
5626
5864.87
6025.45
6351.48
4934.99
5192.63
5275.37
5430.5
5555.41
5691.98
5832.29
5975.84
6118.73
6259.71
6400.32
6541.74
6682.74
6826.31
6966.62
7114.96
7250.52
7404.37
7507.83
7626.55
7117.86
7270.77
7297.61
7388.3
7440.74
7507
7570.61
7636.89
7703.85
7774.97
7849.61
7926.39
8004.78
8085.69
8170.74
8264.46
8358.99
8457.94
8526.62
8592.05
7266.33
7413.04
7457.96
7560.78
7628.06
7711.07
7786.34
7861.35
7927.16
7975.8
8005.81
8016.24
8018.94
8019.46
8039.98
8080.02
8159.69
8242.71
8327.76
8363.88
10235.9
10200.2
10115.1
10005.1
9863.91
9710.71
9554.51
9387.59
9210.7
9061.96
8931.78
8826.1
8745.28
8684.96
8659.34
8648.84
8694.45
8701.61
8749.2
8657
)
;

boundaryField
{
    outletWall
    {
        type            fixedValue;
        value           uniform 0;
    }
    fineWalls
    {
        type            zeroGradient;
    }
    fineFrontAndBack
    {
        type            zeroGradient;
    }
    fineplugLeft
    {
        type            cyclicAMI;
        value           nonuniform List<scalar> 
20
(
5806.39
5923.2
5881.19
5908.9
5950.77
6036.98
6132.96
6246.15
6366.91
6499.84
6644.14
6814.33
6954.39
7605.4
7706.99
7721.76
7871.88
7815.07
7717.61
7335.35
)
;
    }
    fineplugRight
    {
        type            cyclicAMI;
        value           nonuniform List<scalar> 
20
(
7297.36
7409.77
7286.13
7206.35
7084.96
7045.39
7030.11
7063.17
7117.57
7195.46
7290.74
7383
7494.35
8282.67
8021.58
8025.05
8134.66
8148.66
8192.49
7986.46
)
;
    }
    inletOutletLeft
    {
        type            cyclicAMI;
        value           nonuniform List<scalar> 
20
(
5806.39
5923.2
5881.19
5908.9
5950.77
6036.98
6132.96
6246.15
6366.91
6499.84
6644.14
6814.33
6954.39
7605.4
7706.99
7721.76
7871.88
7815.07
7717.61
7335.35
)
;
    }
    inletLeft
    {
        type            zeroGradient;
    }
    inletWallsLeft
    {
        type            zeroGradient;
    }
    inletFacesLeft
    {
        type            zeroGradient;
    }
    inletOutletRight
    {
        type            cyclicAMI;
        value           nonuniform List<scalar> 
20
(
7297.36
7409.77
7286.13
7206.35
7084.96
7045.39
7030.11
7063.17
7117.57
7195.46
7290.74
7383
7494.35
8282.67
8021.58
8025.05
8134.66
8148.66
8192.49
7986.46
)
;
    }
    inletRight
    {
        type            zeroGradient;
    }
    inletWallsRight
    {
        type            zeroGradient;
    }
    inletFacesRight
    {
        type            zeroGradient;
    }
}


// ************************************************************************* //
