/*--------------------------------*- C++ -*----------------------------------*\
| =========                 |                                                 |
| \\      /  F ield         | OpenFOAM: The Open Source CFD Toolbox           |
|  \\    /   O peration     | Version:  4.1                                   |
|   \\  /    A nd           | Web:      www.OpenFOAM.org                      |
|    \\/     M anipulation  |                                                 |
\*---------------------------------------------------------------------------*/
FoamFile
{
    version     2.0;
    format      ascii;
    class       volScalarField;
    location    "29";
    object      p;
}
// * * * * * * * * * * * * * * * * * * * * * * * * * * * * * * * * * * * * * //

dimensions      [0 2 -2 0 0 0 0];

internalField   nonuniform List<scalar> 
1280
(
2.61297
4.12916
8.48312
10.8277
15.7696
17.2886
17.9763
19.0564
20.1291
21.7661
21.5258
21.9728
21.9868
20.2889
21.4904
19.0393
16.2319
13.0574
18.0471
-5.19095
17.3225
39.0922
48.8343
46.4343
44.5423
51.4328
36.6539
32.3216
28.8808
28.1558
26.9779
25.3054
23.7876
21.4814
19.5807
16.3754
14.2551
11.1307
11.7078
18.0298
3.41457
3.53409
10.1729
15.1244
31.0844
26.4522
26.7335
27.2427
26.6148
26.4682
26.8603
26.0791
26.9252
26.7951
26.8051
27.8705
14.6893
11.0633
5.16122
-11.5318
14.2008
6.69681
2.59866
3.83644
4.68119
6.97798
8.103
9.61972
10.4823
11.3199
11.8347
12.7018
12.3212
-25.6923
27.7832
22.4113
21.8195
25.5069
15.8398
-4.7851
-21.8634
-0.42259
-5.9458
1.78678
7.01295
13.12
15.0349
16.9733
18.4307
18.873
18.1136
18.8111
15.6989
12.5824
12.3146
13.0066
6.99875
-0.0133628
0.401755
3.25197
0.420584
1.08458
1.58421
0.579756
-0.239445
-0.604552
-0.779786
-0.919263
-1.69875
-2.85713
-2.43509
-10.3631
-4.43589
2.03015
7.0787
7.35209
2.46337
0.24466
1.10797
-0.606703
0.531563
1.87734
-0.240777
-0.723012
-0.834124
-1.12587
-1.38033
-2.37289
-1.70425
-4.28525
-12.2731
-0.932969
12.9317
22.2955
21.3168
8.75577
2.15585
2.05954
-1.42843
3.09453
3.76321
0.202415
-1.01751
-1.50076
-2.16517
-2.8405
-5.11263
-6.3433
-14.214
-16.6513
-1.09429
18.3809
31.7377
32.8527
16.0718
2.38145
1.82246
-2.54189
3.48368
2.86191
-0.289385
-1.58484
-2.03508
-2.97421
-4.00201
-6.71897
-8.07932
-19.8761
-21.3705
-1.45618
23.4655
41.5383
45.0581
23.7649
-0.0805719
-2.48935
-3.68473
3.80347
2.77328
-0.399205
-1.95685
-2.54006
-3.75634
-5.12125
-8.1775
-10.6978
-26.8828
-24.9834
-1.25351
28.4298
50.8677
55.8001
30.4157
-5.63428
-12.5916
-4.40633
3.41336
2.07306
-0.895956
-2.34351
-2.96143
-4.24024
-5.59223
-8.49538
-11.7595
-31.3634
-27.002
-1.07309
31.8964
57.9957
62.8691
35.0036
-12.5709
-21.443
-4.7593
2.5367
1.35036
-1.2581
-2.59432
-3.22707
-4.3127
-5.25551
-7.89141
-11.5848
-32.0144
-26.1285
-0.595583
33.2503
62.917
64.953
37.6573
-26.8724
-28.4837
-4.73178
1.35697
0.130577
-1.66648
-2.74175
-3.19868
-3.8128
-4.13247
-6.31573
-9.41012
-26.7734
-20.9756
0.586512
32.3546
63.631
62.2832
45.0769
11.1971
-0.0717207
-4.44877
0.323422
-1.35005
-1.68156
-2.62175
-2.78293
-2.91377
-2.7043
-4.33882
-6.30229
-18.5669
-13.3187
2.61407
30.2975
54.2304
53.1866
39.9272
38.6379
51.1824
-4.04559
-0.0949564
-2.67124
-1.32209
-2.32781
-2.18453
-1.99941
-1.35465
-2.27709
-2.90556
-10.3166
-6.28218
4.49203
26.8084
42.0297
43.435
35.8007
34.6673
35.5535
-3.65945
0.202243
-3.45809
-0.808386
-2.06038
-1.63959
-1.24884
-0.178477
-0.344387
0.719441
-3.17764
-1.97402
4.18536
22.2867
33.1324
33.8483
30.9665
36.4486
36.9435
-3.36225
0.68415
-3.79414
-0.498065
-1.90084
-1.26376
-0.799654
0.686023
1.29393
4.59202
2.71993
0.18381
2.00299
15.295
17.0279
13.4294
18.5742
31.9851
49.7749
-3.06958
0.798816
-3.9488
-0.36286
-1.66835
-0.869024
-0.48227
1.27388
2.53163
8.10326
6.81532
2.15996
0.492564
8.55024
3.47384
5.88414
16.1007
36.3378
35.3224
-2.76527
0.394517
-4.02555
-0.333186
-1.31181
-0.300089
0.117924
2.01197
3.50799
10.8122
9.12531
4.28539
0.120446
4.04513
-3.85283
2.6205
15.1108
29.6018
31.3562
-2.21306
-0.189276
-3.84438
-0.355478
-0.946002
0.251768
0.907777
3.03264
4.50354
13.1394
12.044
6.73305
0.195185
-0.177243
-9.21719
-5.52058
13.0846
28.0078
30.5113
-1.72902
-1.25281
-3.43438
-0.427366
-0.698233
0.542493
1.43854
3.93333
5.70369
15.7337
16.668
10.3219
1.23642
-4.97421
-9.13308
-10.6689
11.9505
23.5613
26.2468
-0.760328
-2.20348
-2.89944
-0.509117
-0.610673
0.546306
1.51703
4.2455
6.50255
17.4299
20.1259
13.5206
2.47085
-9.4765
-6.32254
-12.5671
10.089
19.4446
22.6825
-0.24158
-2.89819
-2.23993
-0.463419
-0.48071
0.5478
1.49265
4.14023
6.52167
17.2623
20.1355
15.0605
3.21874
-13.4782
-7.69633
-11.1318
7.65718
14.4267
17.046
1.38142
-2.72121
-1.93868
-0.708535
-0.760974
0.0816016
1.01196
3.408
5.84242
15.4845
13.9612
10.1439
1.30824
-11.0509
-11.3767
-9.28494
3.97351
9.16072
11.654
0.462664
-2.92003
-2.36637
-1.70083
-1.94921
-1.66146
-1.15233
0.2825
1.90267
6.93273
5.34803
6.94089
1.28276
-7.16363
-13.1738
-12.0388
-2.58671
2.4408
4.87716
173.018
170.789
169.237
169.041
166.149
163.712
160.411
158.096
155.024
152.315
149.877
147.409
145.573
143.451
142.321
140.359
140.164
137.997
138.736
136.861
113.977
113.634
115.052
116.424
116.54
116.822
116.486
116.211
116.392
116.127
116.402
116.111
116.532
116.219
116.898
116.507
117.561
117.14
118.662
118.784
134.775
133.409
134.927
135.082
135.047
134.501
134.36
133.619
133.453
132.753
132.664
132.092
132.181
131.652
131.974
131.372
132.028
131.33
132.575
132.217
119.148
118.51
120.499
120.601
121.404
120.791
121.174
120.574
120.74
120.324
120.493
120.255
120.628
120.448
121.111
120.884
121.877
121.627
123.124
123.403
124.4
123.751
125.647
125.217
126.626
125.487
126.02
125.33
125.267
124.87
124.725
124.462
124.548
124.29
124.741
124.412
125.257
124.889
126.332
126.396
116.96
116.999
118.658
118.147
120.483
118.846
119.561
119.265
119.067
119.047
118.755
118.732
118.747
118.637
119.121
118.922
119.917
119.743
121.436
121.692
114.209
114.867
115.846
115.345
118.749
116.341
117.077
117.428
116.928
117.355
116.855
116.976
116.866
116.74
117.132
116.909
117.905
117.806
119.661
119.865
105.816
107.541
107.658
107.524
112.339
108.951
109.655
111.173
110.336
111.362
110.907
111.213
111.218
111.17
111.592
111.479
112.508
112.619
114.68
115.033
95.2774
98.1274
97.1018
97.3298
103.76
99.5274
99.9846
102.92
102.077
103.52
103.512
103.982
104.391
104.607
105.249
105.5
106.626
107.164
109.351
110.135
79.2724
82.8088
80.1822
80.6222
89.1096
83.4012
83.0702
87.5232
86.7813
88.0103
88.5206
88.8738
89.6916
90.095
90.9696
91.6028
92.7446
93.8159
95.7804
97.5919
66.2843
68.9417
65.0967
65.0588
72.6476
67.6644
66.575
69.9037
69.8115
69.2897
69.7435
68.9713
69.4231
68.9672
69.3536
69.2787
69.9472
70.8702
72.5993
74.7921
65.8045
66.3292
66.9102
65.3423
68.9524
65.4284
68.6119
65.3149
67.1124
64.5086
65.2603
63.2883
63.2946
61.804
61.5908
60.6653
61.0646
61.2006
61.742
61.8181
68.0943
68.6604
69.5496
67.6374
70.655
67.977
71.3715
69.9426
72.0856
70.9248
72.3324
71.8616
72.5523
72.3705
72.5973
72.2135
72.072
71.9164
71.5019
71.7139
66.1867
66.3567
67.3365
65.3933
67.7608
64.6023
68.1724
66.5485
68.2227
67.2962
68.2708
68.4758
69.369
69.87
70.3859
71.0698
71.2187
71.6805
71.7978
71.7312
68.6969
68.8252
70.6587
69.0269
71.5404
70.2592
72.1534
71.8842
73.0494
73.4302
74.2113
74.8096
75.4997
76.1348
76.5571
76.5565
75.9376
75.9678
75.9501
75.9778
59.659
58.6092
60.6391
57.7231
60.2333
58.4843
59.8939
59.6198
60.4781
60.9896
61.8726
62.7757
63.8025
64.8325
65.8351
66.7228
67.5017
68.3206
69.1139
70.2331
78.2462
74.6962
76.521
69.9838
70.0985
65.4979
63.536
60.3046
57.8374
55.2405
52.9568
50.8363
48.9811
47.4106
46.2677
45.7268
46.0462
46.5718
46.9883
48.0717
85.1989
78.7581
86.5767
79.4873
81.3774
77.8743
76.5106
73.859
71.5181
68.8969
66.2954
63.6468
61.0412
58.5526
56.3119
54.7609
54.371
54.3374
54.0939
53.9218
100.356
78.4745
86.6911
75.7094
73.1542
66.6797
61.9756
56.9851
52.7645
49.0941
46.2241
44.206
43.1454
43.1149
44.223
46.6779
50.4045
54.4878
57.9418
59.2689
786.754
704.277
655.326
599.031
550.045
502.742
458.77
417.234
378.154
341.248
306.355
273.284
241.83
211.929
183.625
156.149
129.718
108.334
84.02
47.019
761.549
679.082
630.153
573.957
525.108
478.007
434.281
393.026
354.237
317.606
282.944
250.034
218.668
188.767
160.338
132.614
105.656
83.1789
58.1766
22.763
73.5163
52.285
60.663
50.0554
47.6691
41.3747
36.7243
31.7001
27.3118
23.3333
20.0116
17.4308
15.7354
15.0398
15.5221
17.073
19.2601
22.8258
27.7956
30.5772
74.7486
69.3854
78.0569
71.8943
74.7588
72.202
71.8328
70.1368
68.7652
67.0966
65.4859
63.9445
62.6706
61.7703
61.2114
60.8893
60.692
60.6717
60.8943
61.3372
81.5019
77.6673
79.7997
73.3267
73.7228
69.3861
67.7522
64.8317
62.6924
60.4101
58.4604
56.6934
55.2954
54.1639
53.1324
52.0997
51.1305
49.9644
48.0171
45.9735
43.5224
39.7323
40.5132
35.859
36.4071
32.8343
32.1394
29.6191
28.0158
25.8999
23.9519
21.9628
20.1543
18.8115
17.954
17.3823
16.9416
16.4525
15.9018
16.8972
17.7296
17.1175
19.366
16.945
19.2924
17.237
19.1401
18.5492
19.3553
19.4006
20.0656
20.9058
22.0651
25.0115
26.6572
27.2443
27.4968
27.7066
27.3443
28.1069
61.899
63.9432
66.3148
66.2786
70.0879
70.4521
73.9386
75.3823
78.1538
80.4986
82.6789
86.4274
85.8704
60.3101
11.5205
10.9252
11.9256
11.2283
9.64638
12.3723
47.2267
47.2
46.6148
44.1863
44.0968
40.7433
39.7167
36.3735
34.2477
31.2657
27.6839
24.5461
21.0183
16.6177
14.7232
11.9037
13.1733
17.8015
10.3891
15.1905
41.5017
42.6824
43.4277
42.8802
44.4286
43.2768
44.51
43.5997
44.5049
44.4372
45.2273
45.4152
46.5542
46.526
47.9058
48.6945
51.4233
54.7347
54.1987
57.0571
62.1155
64.4954
65.6899
66.2368
68.0077
68.326
69.8699
70.1687
71.4851
71.9289
73.2904
73.8341
75.0336
75.5159
76.339
76.9235
77.6256
78.8813
80.118
82.8397
75.6758
77.7745
78.2621
78.5101
79.703
79.4332
80.4801
80.2037
80.9561
80.8415
81.5348
81.6783
82.3058
82.6167
83.2157
83.6571
84.5319
85.1472
86.8839
87.9041
83.6467
85.5344
85.9585
86.3564
87.3712
87.004
87.9566
87.5922
88.1811
88.027
88.4528
88.5564
88.9897
89.2224
89.8439
90.18
91.28
91.9083
94.1419
94.8076
92.8732
94.6242
95.4279
96.3044
97.1072
96.9241
97.654
97.3653
97.842
97.6717
97.9623
97.8919
98.1844
98.0877
98.6116
98.5452
99.5827
99.8102
101.899
102.427
102.397
103.387
104.296
105.365
105.421
105.333
105.331
104.901
105.003
104.51
104.606
104.061
104.203
103.53
103.852
103.088
103.77
103.262
104.817
104.882
102.095
102.189
103.081
104.184
103.544
103.473
102.907
102.361
102.079
101.349
101.3
100.491
100.641
99.7621
100.127
99.1572
99.8107
98.9591
100.332
100.298
103.747
103.058
103.993
105.033
104.087
104.047
103.27
102.718
102.262
101.535
101.418
100.698
100.876
100.199
100.664
99.9436
100.741
99.9763
101.399
101.422
95.8571
95.4378
96.6019
98.0965
97.286
97.67
97.125
97.0063
96.8302
96.5489
96.7303
96.5032
97.0184
96.8623
97.6923
97.5303
98.7171
98.5066
100.175
100.616
112.483
111.533
112.388
113.799
112.739
112.981
112.149
111.874
111.394
110.955
110.823
110.403
110.578
110.185
110.645
110.223
111.052
110.521
111.901
111.715
93.9116
94.1062
94.7979
97.105
96.3019
96.8853
96.2624
96.3765
96.1835
96.1545
96.3165
96.2114
96.6622
96.5075
97.2435
97.0426
98.0841
97.8621
99.3268
99.5375
152.731
150.756
148.157
148.521
144.297
141.65
137.854
135.068
131.858
129.205
126.797
124.511
122.856
120.989
120.126
118.478
118.438
116.559
117.269
115.99
)
;

boundaryField
{
    outletWall
    {
        type            fixedValue;
        value           uniform 0;
    }
    fineWalls
    {
        type            zeroGradient;
    }
    fineFrontAndBack
    {
        type            zeroGradient;
    }
    fineplugLeft
    {
        type            cyclicAMI;
        value           nonuniform List<scalar> 
20
(
113.095
113.331
112.624
114.982
115.562
117.773
119.057
121.216
122.988
125.297
127.484
129.795
132.942
146.339
141.256
141.828
144.52
145.156
144.45
141.879
)
;
    }
    fineplugRight
    {
        type            cyclicAMI;
        value           nonuniform List<scalar> 
20
(
95.6323
95.1545
93.767
95.5179
95.7187
97.4965
98.4121
100.209
101.705
103.701
105.731
108.026
110.519
119.258
118.877
119.92
123.18
123.627
123.773
121.228
)
;
    }
    inletOutletLeft
    {
        type            cyclicAMI;
        value           nonuniform List<scalar> 
20
(
113.095
113.331
112.624
114.982
115.562
117.773
119.057
121.216
122.988
125.297
127.484
129.795
132.942
146.339
141.256
141.828
144.52
145.156
144.45
141.879
)
;
    }
    inletLeft
    {
        type            zeroGradient;
    }
    inletWallsLeft
    {
        type            zeroGradient;
    }
    inletFacesLeft
    {
        type            zeroGradient;
    }
    inletOutletRight
    {
        type            cyclicAMI;
        value           nonuniform List<scalar> 
20
(
95.6323
95.1545
93.767
95.5179
95.7187
97.4965
98.4121
100.209
101.705
103.701
105.731
108.026
110.519
119.258
118.877
119.92
123.18
123.627
123.773
121.228
)
;
    }
    inletRight
    {
        type            zeroGradient;
    }
    inletWallsRight
    {
        type            zeroGradient;
    }
    inletFacesRight
    {
        type            zeroGradient;
    }
}


// ************************************************************************* //
