/*--------------------------------*- C++ -*----------------------------------*\
| =========                 |                                                 |
| \\      /  F ield         | OpenFOAM: The Open Source CFD Toolbox           |
|  \\    /   O peration     | Version:  4.1                                   |
|   \\  /    A nd           | Web:      www.OpenFOAM.org                      |
|    \\/     M anipulation  |                                                 |
\*---------------------------------------------------------------------------*/
FoamFile
{
    version     2.0;
    format      ascii;
    class       surfaceScalarField;
    location    "29";
    object      phi;
}
// * * * * * * * * * * * * * * * * * * * * * * * * * * * * * * * * * * * * * //

dimensions      [0 3 -1 0 0 0 0];

internalField   nonuniform List<scalar> 
2360
(
-11292.4
-6839.93
-4452.48
-6839.93
-6839.93
-2735.83
-4104.1
-2735.83
-2735.83
-2735.83
1474.73
-4210.56
1474.73
1474.73
5464.9
-3990.17
5464.9
5464.9
9154.86
-3689.96
9154.86
9154.85
13530.9
-4376.06
13530.9
13530.9
14831.7
16570.3
18070.8
19365.4
20559.3
21804.8
18540.7
4458.11
19622.3
20620.1
21565.3
22462.9
23313
24103
24835
25493.5
26080.2
26593.9
27092.3
27727.9
28572.8
15149.6
13423.2
15149.6
15149.6
15149.6
3220.85
11928.8
3220.85
3220.85
3220.85
-447.29
3668.14
-447.289
-447.289
793.75
-1241.04
793.749
793.751
793.75
-9963.92
10757.7
-9963.92
-9963.92
-9963.92
-27316.4
17352.4
-26413.4
-25654.8
-25107
-24610.5
-24062.7
-23446.6
-22749.8
-21985.2
-21149.8
-20251.4
-19287.3
-18256.9
-17150.8
-22205.8
6235.02
-20976.2
-19689.1
-18344.6
-16901.3
-15195.7
-14051.4
-14051.4
-14051.4
-9290.88
-4760.5
-9290.88
-9290.88
-3206.35
-6084.52
-3206.35
-3206.35
3373.68
-6580.03
3373.68
3373.68
9048.6
-5674.92
9048.6
9048.6
9048.6
13882.7
-4834.14
13882.7
13882.7
18133.2
-4250.41
-2309.52
1317.68
-4690.89
-192.419
-6809.32
-5847.94
-7476.11
-8786.75
-7294.09
-10435.4
-6965.93
-13692
-6614.74
-17221.5
-6239.7
-21316.5
-5616.86
-25046.6
-4103.49
-24512
-1573.23
-8799.36
20.4713
18623.2
759.889
30145.3
1623.67
29445.4
2602.63
21396.3
3672.6
9308.95
4620.71
-2274.34
5267.53
-6029.05
-7022.77
-1981.3
2457.86
-4722.14
2548.42
-6819.5
-3750.58
-7135.04
-8471.21
-6788.65
-10781.8
-6495.92
-13984.7
-6151.29
-17566.1
-5735.84
-21731.9
-5127.73
-25654.7
-3992.54
-25647.2
-1772.33
-11019.6
-213.363
17064.3
407.309
29524.6
1340.33
28512.4
2612.32
20124.3
4457.74
7463.53
6118.66
-3935.25
6585.49
-6495.88
-5271.42
-2356.7
3700.44
-4855.02
5046.74
-6595.99
-2009.61
-6813.22
-8253.97
-6506.32
-11088.7
-6228.58
-14262.5
-5891.95
-17902.8
-5486.45
-22137.4
-4874.81
-26266.3
-3965.41
-26556.6
-2428.65
-12556.3
-959.719
15595.3
-163.328
28728.2
825.097
27524
2415.59
18533.8
4990.13
4888.99
7348.46
-6293.57
7863.07
-7010.49
-3083.28
-2993.02
4944.75
-5079.87
7133.59
-6439.52
-649.965
-6509.63
-8183.86
-6032.77
-11565.5
-5608.71
-14686.5
-5252.83
-18258.7
-4956.27
-22434
-4525.45
-26697.2
-3990.18
-27091.9
-3219.68
-13326.8
-1884.69
14260.3
-885.458
27729
48.396
26590.1
1907.27
16674.9
5388.02
1408.23
8525.44
-9430.99
9184.99
-7670.04
-478.318
-3858.21
6173.54
-5433.68
8709.06
-6201.14
117.498
-6021.75
-8363.25
-5378.61
-12208.7
-4831.35
-15233.8
-4492.46
-18597.6
-4337.93
-22588.5
-4141.24
-26893.8
-4122.3
-27110.8
-4151.94
-13297.2
-2909.87
13018.3
-1806.41
26625.5
-990.287
25774
1056.89
14627.7
5146.72
-2681.6
8151.13
-12435.4
8758.67
-8277.59
2195.83
-4804.12
7298.39
-5803.3
9708.25
-5914.17
228.368
-5459.34
-8818.08
-4701.92
-12966.1
-4093.11
-15842.6
-3826.14
-18864.5
-3851.77
-22562.9
-3952.86
-26792.8
-4473.55
-26590.1
-5243.38
-12527.3
-4215.69
11990.6
-3058.64
25468.5
-2292.39
25007.8
90.6352
12244.7
2729.25
-5320.22
2963.8
-12669.9
3414.85
-8728.64
850.181
-5685.04
8243.39
-6089.99
10113.2
-5563.34
-298.281
-4871.36
-9510.06
-4093.62
-13743.8
-3534.08
-16402.2
-3403.14
-18995.5
-3613.85
-22352.2
-4034.23
-26372.4
-5051.07
-25573.3
-6492.49
-11085.9
-5851.12
11349.2
-4631.69
24249.1
-3727.28
24103.4
-2101.59
10619
-3634.8
-3787.01
-6297.71
-10007
-4564.2
-10462.1
2521
-6368.26
8948.6
-6180.14
9925.09
-5161.28
-1317.14
-4344.25
-10327.1
-3632.36
-14455.7
-3233.23
-16801.3
-3281.65
-18947
-3645.21
-21988.6
-4325.22
-25692.4
-5653.43
-24245.1
-7559.85
-9179.5
-7416.32
11205.7
-6145.7
22978.4
-5213.87
23171.5
-6355.85
11761
-10842.9
700.022
-14339.4
-6510.53
-16671.3
-8130.26
3202.17
-6773.06
9396.53
-6052.94
9204.97
-4767.19
-2602.89
-3935.83
-11158.5
-3355.96
-15035.6
-3184
-16973.2
-3381.66
-18749.4
-3833.29
-21537
-4678.19
-24847.5
-6069
-22854.2
-8079.53
-7168.97
-8344.93
11471.1
-7118.91
21752.4
-6559.45
22612.1
-9032.77
14234.3
-12211.7
3878.95
-12980.8
-5741.41
-13297.6
-7813.43
662.199
-6880.43
9627.83
-5789.8
8114.34
-4476.1
-3916.59
-3715.58
-11919
-3290
-15461.2
-3304.28
-16959
-3548.96
-18504.7
-4047.18
-21038.7
-5023.69
-23871
-6338.7
-21539.2
-8063.96
-5443.71
-8560.62
11967.7
-7675.45
20867.2
-7629.66
22566.3
-9908.29
16513
-11340.5
5311.2
-10320.3
-6761.64
-6854.99
-11278.8
-7433.83
-6809.13
9733.71
-5605.32
6910.54
-4408.87
-5113.04
-3699.79
-12628.1
-3383.96
-15777
-3448.29
-16894.6
-3640.98
-18312
-4181.14
-20498.6
-5297.23
-22754.9
-6578.37
-20258.1
-7831.41
-4190.67
-8387.8
12524.1
-8130.22
20609.7
-8943.57
23379.6
-11993.1
19562.5
-14043.7
7361.76
-13691
-7114.37
-11238
-13731.7
-15003.7
-6779.41
9805.03
-5651
5782.12
-4529.82
-6234.21
-3795.05
-13362.8
-3524.86
-16047.2
-3512.91
-16906.6
-3612.15
-18212.8
-4163.47
-19947.3
-5374.27
-21544.1
-6723.24
-18909.1
-7548.11
-3365.81
-8023.36
12999.4
-8496.64
21082.9
-10023.5
24906.5
-12332.6
21871.7
-11556
6585.17
-10433.8
-8236.65
-12464.6
-11700.9
-15539.5
-6935.75
9835.59
-5821.54
4667.91
-4632.08
-7423.68
-3866.78
-14128.1
-3603.23
-16310.8
-3472.85
-17037
-3495.14
-18190.5
-4007.52
-19434.9
-5221.58
-20330
-6751.12
-17379.6
-7482.26
-2634.66
-7887.92
13405
-9087.75
22282.8
-10974
26792.8
-11292
22189.6
-6957.35
2250.54
-3791.1
-11402.9
-6589.38
-8902.65
-8705.64
-7305.97
9699.12
-5970.97
3332.91
-4601.45
-8793.2
-3860.51
-14869.1
-3581.79
-16589.5
-3339.88
-17278.9
-3306.2
-18224.2
-3750.6
-18990.5
-4907.77
-19172.8
-6727.88
-15559.5
-7917.04
-1445.5
-8442.03
13930
-10077.2
23917.9
-11765.9
28481.4
-10000
20423.8
-5013.45
-2736.05
-1808.08
-14608.3
648.439
-11359.2
-3599.1
-7805.18
9202.74
-5995.98
1523.71
-4446.42
-10342.8
-3807.77
-15507.7
-3505.17
-16892.1
-3170.94
-17613.1
-3064.28
-18330.8
-3399.57
-18655.2
-4460.86
-18111.5
-6617.3
-13403
-8719.53
656.726
-9716.04
14926.5
-11260.6
25462.5
-11908.5
29129.3
-7853.1
16368.4
-2764.93
-7824.22
-369.394
-17003.8
1810.69
-13539.2
-6164.48
-8136.51
8248.98
-5807.25
-805.558
-4233.31
-11916.7
-3758.81
-15982.2
-3415.63
-17235.3
-3021.43
-18007.3
-2817.57
-18534.7
-2995.28
-18477.5
-3876.42
-17230.4
-6254.49
-11025
-9313.85
3716.09
-10998.8
16611.5
-12061.7
26525.4
-11083.5
28151.2
-5027.67
10312.6
-240.738
-12611.2
1495.71
-18740.3
2841.22
-14884.8
-7013.22
-8002.71
6852.24
-5385.72
-3422.55
-4056.31
-13246.1
-3737.31
-16301.2
-3333.91
-17638.7
-2911.34
-18429.9
-2608.14
-18837.9
-2604.99
-18480.6
-3160.1
-16675.3
-5370.68
-8814.39
-9045.47
7390.88
-11442.3
19008.2
-11946.8
27029.9
-9369.51
25573.9
-2622.51
3565.55
1543.21
-16776.9
2957.25
-20154.3
3814.72
-15742.2
-7188.67
-7449.5
5267.3
-4975.41
-5896.63
-4003.66
-14217.9
-3731.12
-16573.8
-3280.77
-18089
-2838.69
-18872
-2452.7
-19223.9
-2272.6
-18660.8
-2406.9
-16541
-4021.39
-7199.9
-7756.18
11125.7
-10642.1
21894.1
-10716.7
27104.6
-6882.02
21739.2
-534.389
-2782.07
2689.57
-20000.8
4048.62
-21513.4
4501.42
-16195
-6897.81
-6768.34
3584.06
-4673.31
-7991.66
-4049.82
-14841.3
-3723.17
-16900.4
-3261.29
-18550.9
-2791.08
-19342.2
-2343.23
-19671.7
-2009.58
-18994.4
-1787.13
-16763.4
-2506.41
-6480.61
-5880.78
14500
-9284.29
25297.6
-9158.25
26978.5
-4093.5
16674.4
1222.24
-8097.81
3401.13
-22179.7
4602.03
-22714.3
4913.39
-16506.4
-6088.52
-6009.8
-4583.73
-4115.62
-3726.11
-3261.67
-2764.49
-2268.84
-1833.44
-1437.21
-1426.64
-3321.67
-6109.3
-6318.32
-2313.84
1789.11
3808.75
4857.81
5154.38
240.268
-1541.08
447.209
-1945.52
582.036
-1635.3
680.485
-1393.05
792.168
-1305.58
923.362
-1376.75
956.105
-1226.67
951.345
-1076.84
941.395
-987.89
926.726
-930.565
894.892
-865.736
846.059
-801.208
774.4
-718.355
688.21
-645.887
579.064
-549.295
453.323
-460.973
315.367
-375.702
196.231
-379.307
105.618
-545.004
-739.296
73.2017
-1614.28
53.1233
-1925.44
64.8801
-1647.06
74.4828
-1402.65
105.164
-1336.26
142.372
-1413.96
132.865
-1217.16
118.466
-1062.44
117.398
-986.82
123.258
-936.424
124.18
-866.657
121.543
-798.57
110.524
-707.334
97.8592
-633.221
82.8316
-534.266
69.2292
-447.369
59.1967
-365.667
60.6806
-380.789
50.0794
-534.399
-689.216
-2.93214
-1611.35
10.9755
-1939.34
61.0643
-1697.15
81.2069
-1422.79
105.076
-1360.13
119.108
-1427.99
123.114
-1221.16
135.179
-1074.5
142.864
-994.504
146.752
-940.31
146.448
-866.352
144.788
-796.908
140.451
-702.996
133.042
-625.812
128.402
-529.624
128.053
-447.019
127.482
-365.095
118.241
-371.546
77.7182
-493.874
-611.498
2.00791
-1613.35
7.53823
-1944.87
41.2743
-1730.88
49.8266
-1431.34
70.8211
-1381.12
87.413
-1444.58
85.7929
-1219.54
89.3382
-1078.05
94.561
-999.726
100.723
-946.472
103.765
-869.394
104.454
-797.596
102.783
-701.324
96.949
-619.977
89.8844
-522.559
88.426
-445.56
91.4097
-368.078
90.2074
-370.343
57.628
-461.294
-553.87
0.685121
-1614.04
-4.94527
-1939.24
26.6481
-1762.47
36.8469
-1441.54
55.3506
-1399.62
71.8906
-1461.12
74.3376
-1221.99
86.5062
-1090.21
97.9799
-1011.2
107.647
-956.138
114.229
-875.974
117.961
-801.327
121.335
-704.698
120.515
-619.157
117.95
-519.992
118.061
-445.671
122.477
-372.494
113.402
-361.268
66.7395
-414.631
-487.131
15.703
-1629.74
10.8156
-1934.35
45.0633
-1796.72
59.6116
-1456.08
78.6848
-1418.7
96.0267
-1478.46
97.6273
-1223.59
112.641
-1105.23
126.721
-1025.28
138.027
-967.444
146.181
-884.127
150.96
-806.105
155.283
-709.02
154.916
-618.789
150.822
-515.898
142.312
-437.161
132.393
-362.574
108.582
-337.456
58.9614
-365.009
-428.169
23.4524
-1653.19
19.7834
-1930.68
50.1704
-1827.11
64.5647
-1470.48
82.4685
-1436.6
97.5992
-1493.59
101.865
-1227.85
121.153
-1124.51
139.354
-1043.48
153.038
-981.127
164.47
-895.559
171.664
-813.298
179.145
-716.501
181.69
-621.333
181.757
-515.964
173.907
-429.311
158.418
-347.085
123.682
-302.72
67.9859
-309.313
-360.183
32.1722
-1685.36
39.1855
-1937.7
66.7521
-1854.67
89.821
-1493.55
109.876
-1456.65
122.42
-1506.14
134.406
-1239.84
158.563
-1148.67
182.288
-1067.2
199.126
-997.965
215.614
-912.047
226.058
-823.741
235.816
-726.26
238.811
-624.328
238.596
-515.749
227.854
-418.568
204.537
-323.769
157.446
-255.628
90.5574
-242.425
-269.626
39.9671
-1725.33
56.0777
-1953.81
75.3438
-1873.94
111.101
-1529.3
134.155
-1479.71
140.399
-1512.38
166.981
-1266.42
199.439
-1181.13
232.879
-1100.64
256.134
-1021.22
281.102
-937.013
299.125
-841.764
315.108
-742.242
323.044
-632.263
326.323
-519.028
316.807
-409.052
290.546
-297.507
234.876
-199.958
143.887
-151.435
-125.739
48.7915
-1774.12
66.7757
-1971.79
70.3
-1877.46
126.465
-1585.46
157.071
-1510.31
147.916
-1503.22
194.843
-1313.35
233.548
-1219.83
275.797
-1142.89
305.58
-1051
339.787
-971.22
368.334
-870.311
395.958
-769.866
417.381
-653.686
434.624
-536.271
436.034
-410.462
409.194
-270.668
350.623
-141.386
238.023
-38.8354
112.284
55.707
-1829.83
63.9687
-1980.05
37.5986
-1851.09
101.304
-1649.17
145.188
-1554.2
111.883
-1469.92
165.506
-1366.97
197.365
-1251.69
233.299
-1178.83
260.728
-1078.43
292.437
-1002.93
321.444
-899.317
351.366
-799.788
378.52
-680.84
400.866
-558.618
397.921
-407.517
326.791
-199.537
175.717
9.68751
38.9046
97.976
151.188
57.4988
-1887.32
38.2439
-1960.79
15.3677
-1828.21
39.7555
-1673.56
73.4584
-1587.9
54.5727
-1451.03
69.011
-1381.41
81.8504
-1264.53
92.608
-1189.58
104.432
-1090.25
112.144
-1010.64
119.889
-907.062
123.15
-803.049
122.654
-680.345
112.447
-548.411
84.6914
-379.763
13.0585
-127.905
-142.978
165.722
-221.01
176.006
-69.8216
53.9073
-1941.23
9.53723
-1916.42
9.35261
-1828.03
-2.21535
-1661.99
6.51018
-1596.62
19.1664
-1463.69
18.8187
-1381.06
27.4331
-1273.15
32.6043
-1194.75
41.1511
-1098.8
41.1789
-1010.67
37.7987
-903.682
19.3986
-784.649
-10.1985
-650.748
-47.4287
-511.181
-75.0291
-352.163
-51.2194
-151.716
7.79538
106.707
34.1409
149.66
-35.6808
40.1215
-1981.35
0.640843
-1876.95
-2.43242
-1824.96
-15.3737
-1649.05
-20.3457
-1591.65
-27.2486
-1456.79
-28.6817
-1379.63
-30.7861
-1271.04
-35.6035
-1189.94
-38.3715
-1096.03
-44.7368
-1004.3
-53.2135
-895.206
-67.2668
-770.596
-84.0174
-633.998
-103.886
-491.313
-112.258
-343.791
-70.314
-193.66
64.3882
-27.9957
137.264
76.7828
101.583
14.559
-1995.92
-10.4906
-1851.9
-18.3041
-1817.15
-34.1352
-1633.22
-46.8539
-1578.94
-65.9663
-1437.68
-84.2558
-1361.34
-102.169
-1253.13
-123.411
-1168.7
-142.863
-1076.58
-159.075
-988.094
-163.013
-891.27
-146.791
-786.818
-107.851
-672.939
-56.8904
-542.274
-9.99216
-390.69
29.4978
-233.15
111.764
-110.263
133.467
55.0788
235.051
23.2405
-2019.16
23.8125
-1852.47
33.5981
-1826.93
45.6229
-1645.25
55.6396
-1588.95
73.9079
-1455.95
88.461
-1375.89
108.238
-1272.91
126.976
-1187.44
148.811
-1098.42
175.081
-1014.37
212.308
-928.499
263.545
-838.057
323.502
-732.898
374.599
-593.373
380.788
-396.88
337.428
-189.791
237.353
-10.1909
125.862
166.567
360.913
-10.6798
-2008.48
-43.4724
-1819.68
-60.3738
-1810.03
-61.4881
-1644.13
-63.898
-1586.55
-47.2204
-1472.63
-28.6931
-1394.42
2.46846
-1304.07
39.4739
-1224.44
85.2568
-1144.21
137.071
-1066.18
193.469
-984.898
249.771
-894.359
295.727
-778.855
304.412
-602.059
231.7
-324.169
80.3523
-38.4457
-21.5886
91.7479
-78.0749
223.052
282.838
-156.218
-1852.26
-334.248
-1641.65
-477.784
-1666.5
-581.561
-1540.36
-675.474
-1492.63
-738.096
-1410.01
-787.447
-1345.07
-816.774
-1274.75
-832.308
-1208.91
-833.352
-1143.16
-821.7
-1077.83
-797.269
-1009.33
-759.377
-932.251
-704.748
-833.484
-622.006
-684.801
-492.465
-453.71
-348.623
-182.289
-241.713
-15.1631
-123.195
104.533
159.643
-208.499
-1643.76
-462.781
-1387.37
-729.436
-1399.84
-955.464
-1314.33
-1172.86
-1275.24
-1358.48
-1224.39
-1522.01
-1181.54
-1658.87
-1137.9
-1771.98
-1095.79
-1861.33
-1053.81
-1927.26
-1011.91
-1967.6
-968.987
-1976.64
-923.211
-1938.95
-871.172
-1816.25
-807.507
-1544.79
-725.172
-1109.87
-617.202
-647.971
-477.064
-249.857
-293.581
-90.2139
-668.763
-1081.14
-1505.98
-1845.31
-2145.55
-2394.94
-2601.48
-2764.37
-2885.17
-2963.98
-3000.89
-2994.88
-2943.09
-2839.26
-2671.77
-2421.94
-2064.14
-1566.21
-884.786
-670.336
1645.34
-1080.99
1385.66
-1503.9
1397.91
-1838.98
1310.08
-2133.45
1269.48
-2375.25
1216.8
-2572.93
1172.69
-2726.38
1128.45
-2838.14
1086.76
-2909.35
1046.22
-2940.99
1006.64
-2932.32
966.33
-2880.18
922.864
-2778.95
873.769
-2621.31
817.358
-2398.35
752.046
-2091.72
668.371
-1643.58
526.856
-947.042
278.463
27.958
-182.35
1827.7
-409.905
1613.23
-648.846
1636.86
-846.051
1507.29
-1034.13
1457.56
-1189.93
1372.6
-1323.47
1306.22
-1430.25
1235.24
-1512.66
1169.17
-1568.31
1101.87
-1592.54
1030.87
-1577.06
950.855
-1514.86
860.656
-1405.52
764.433
-1257.01
668.849
-1077.96
572.999
-864.539
454.951
-605.704
268.021
-257.681
-69.5591
-229.723
-147.113
1974.81
-325.132
1791.25
-466.301
1778.03
-576.891
1617.89
-677.529
1558.2
-753.786
1448.87
-819.858
1372.3
-872.21
1287.6
-914.398
1211.36
-940.022
1127.5
-935.863
1026.72
-878.297
893.294
-746.255
728.616
-546.299
564.481
-318.621
441.174
-89.1432
343.526
136.802
229.01
306.574
98.2532
278.617
-41.5975
48.8944
-63.5762
2038.39
-148.361
1876.04
-217.999
1847.67
-283.289
1683.18
-351.229
1626.14
-410.603
1508.24
-475.203
1436.9
-536.01
1348.41
-598.406
1273.76
-658.266
1187.36
-711.28
1079.73
-741.124
923.14
-723.356
710.849
-652.661
493.788
-538.081
326.595
-385.193
190.64
-223.74
67.5596
-112.242
-13.2412
-70.535
-83.3001
-21.6405
5.97274
2032.42
-68.6321
1950.65
-106.02
1885.06
-140.096
1717.26
-170.706
1656.76
-191.261
1528.8
-201.373
1447.02
-205.842
1352.88
-210.79
1278.71
-212.565
1189.14
-217.82
1084.99
-239.885
945.211
-294.511
765.479
-342.727
542.01
-380.408
364.281
-408.353
218.591
-443.163
102.376
-484.335
27.9341
-384.862
-182.769
-406.503
115.275
1917.15
97.9943
1967.93
134.997
1848.06
177.589
1674.67
226.755
1607.59
282.613
1472.95
349.752
1379.88
422.858
1279.78
499.542
1202.03
581.335
1107.35
656.567
1009.76
716.294
885.487
708.573
773.2
627.172
623.413
429.03
562.423
239.472
408.149
77.4133
264.434
-14.633
119.98
-85.1305
-112.272
-491.633
58.8983
1858.25
26.548
2000.28
20.5643
1854.05
11.5005
1683.74
10.8632
1608.23
23.9972
1459.81
33.6751
1370.2
33.846
1279.61
12.0238
1223.85
-21.5485
1140.93
-75.6376
1063.85
-127.747
937.598
-179.712
825.164
-255.594
699.295
-371.742
678.571
-377.662
414.069
-287.008
173.781
-141.785
-25.2423
-121.062
-132.995
-612.695
51.5566
1806.7
55.9508
1995.88
73.2368
1836.76
93.3991
1663.58
119.422
1582.21
140.835
1438.4
159.812
1351.23
198.988
1240.43
245.419
1177.42
301.027
1085.32
357.231
1007.64
394.927
899.901
414.312
805.777
413.215
700.392
416.966
674.82
381.643
449.391
362.186
193.237
204.806
132.137
88.2935
-16.4836
-524.401
54.4196
1752.28
77.0739
1973.24
102.69
1811.15
127.046
1639.22
152.465
1556.79
165.169
1425.7
174.996
1341.4
204.347
1211.09
250.872
1130.9
306.941
1029.25
368.873
945.714
428.741
840.035
503.632
730.888
591.4
612.625
656.079
610.143
614.167
491.306
496.495
310.911
410.078
218.558
343.619
49.9795
-180.782
56.2576
1696.02
67.3581
1962.13
86.0897
1792.42
101.444
1623.87
116.095
1542.14
118.411
1423.38
119.293
1340.52
124.306
1206.07
147.534
1107.67
181.263
995.522
229.191
897.785
286.466
782.759
357.533
659.821
426.062
544.095
530.459
505.746
572.286
449.479
517.02
366.177
443.253
292.325
280.844
212.39
100.062
80.904
1615.12
79.3986
1963.64
93.0495
1778.76
104.576
1612.34
118.498
1528.22
124.616
1417.26
131.532
1333.6
129.929
1207.67
138.017
1099.58
150.838
982.702
173.535
875.087
197.823
758.47
215.616
642.028
225.405
534.306
284.087
447.064
333.425
400.14
330.052
369.55
280.601
341.776
165.799
327.192
265.861
100.776
1514.34
99.0034
1965.41
111.944
1765.82
125.485
1598.8
148.164
1505.53
175.61
1389.81
209.339
1299.87
230.844
1186.17
249.177
1081.24
261.156
970.719
270.375
865.864
268.278
760.563
250.975
659.328
232.859
552.417
239.673
440.247
250.772
389.039
247.085
373.235
206.25
382.609
119.493
413.946
385.354
77.8658
1436.47
80.6881
1962.58
99.9396
1746.57
112.729
1586
135.824
1482.44
170.556
1355.08
216.765
1253.66
259.84
1143.09
291.238
1049.84
307.562
954.393
310.483
862.941
299.13
771.914
284.716
673.741
275.503
561.629
268.35
447.398
261.088
396.3
251.533
382.79
209.794
424.347
126.746
496.992
512.1
22.999
1413.46
22.1353
1963.44
44.942
1723.75
49.13
1581.81
58.5472
1473.02
70.6031
1343.02
91.9636
1232.3
120.47
1114.58
143.799
1026.51
157.441
940.747
162.51
857.868
166.29
768.13
179.299
660.728
190.983
549.942
199.581
438.796
209.825
386.054
216.069
376.545
190.504
449.91
125.596
561.896
637.697
-14.6601
1428.12
-16.7463
1965.52
11.1803
1695.82
10.5086
1582.48
9.81068
1473.71
2.04095
1350.79
-4.45067
1238.79
-7.16048
1117.29
-2.08295
1021.43
6.92469
931.736
20.6532
844.137
41.1572
747.623
63.1721
638.71
75.0732
538.038
84.7015
429.166
100.166
370.587
114.915
361.794
110.961
453.863
80.4041
592.451
718.101
-30.8934
1459.01
-32.0966
1966.72
1.23187
1662.49
5.20332
1578.51
9.7633
1469.15
9.36262
1351.19
6.79132
1241.35
-2.99172
1127.06
-5.47711
1023.91
-1.32392
927.579
10.8796
831.929
23.2393
735.259
28.4433
633.503
26.175
540.303
23.8162
431.521
29.6092
364.791
39.6173
351.784
41.9049
451.573
26.195
608.158
744.296
-15.3344
1474.34
-3.00715
1954.39
38.6588
1620.82
56.7834
1560.38
70.1316
1455.8
80.1212
1341.2
91.2371
1230.24
94.2722
1124.03
96.1043
1022.08
95.1973
928.484
93.0203
834.105
83.0038
745.274
66.9691
649.536
47.6526
559.618
27.1327
452.04
13.1376
378.785
9.21863
355.702
9.6092
451.182
-6.80918
624.575
737.486
-2.87907
1477.22
14.5205
1936.99
67.8401
1567.5
101.19
1527.03
123.888
1433.1
142.655
1322.43
162.878
1210.01
179.497
1107.41
192.034
1009.54
193.94
926.577
187.598
840.446
172.873
759.998
156.932
665.476
138.462
578.087
120.27
470.231
102.026
397.028
87.7253
370.003
70.9278
467.979
29.6595
665.843
767.146
92.0717
1385.14
84.6446
1944.42
77.4844
1574.66
107.455
1497.06
122.277
1418.28
120.34
1324.36
121.36
1208.99
121.465
1107.3
121.479
1009.52
119.637
928.419
114.101
845.982
105.782
768.317
93.8574
677.4
78.9345
593.009
60.1542
489.011
44.901
412.28
45.1163
369.788
57.5017
455.594
38.4506
684.894
805.597
240.839
479.688
611.023
763.545
894.771
989.503
1018.49
1019.65
998.838
963.133
910.734
843.614
756.385
652.59
525.487
390.004
263.246
171.051
97.3447
)
;

boundaryField
{
    outletWall
    {
        type            calculated;
        value           nonuniform List<scalar> 
60
(
18133.2
8039.89
5382.23
1326.23
-10378.9
-22375.2
-30309.2
-30884.7
-20216.9
6269.1
22998.6
24423.8
20941.4
16870.3
13363.8
10253.4
9453.53
7966.38
2573.78
-387.292
7243.02
8451.58
9034.44
9399.45
9090.27
8301.56
7442.45
6905.18
6708.09
6703.25
6649.13
6325.12
5663.05
4740.03
3679.27
2629.41
1748.71
1114.13
841.115
1379.13
11292.4
-5386.62
-16803
-23763.3
-24199.4
-12200.8
12670
27187.6
28085.3
16395.1
-6491.19
-17159.6
-19429.8
-20167.4
-19839.3
-19015.3
-17289.9
-15309.5
-9417.73
2350.84
)
;
    }
    fineWalls
    {
        type            calculated;
        value           uniform 0;
    }
    fineFrontAndBack
    {
        type            calculated;
        value           nonuniform List<scalar> 
960
(
-1.13072e-12
-5.2346e-12
-9.15964e-13
-1.02697e-12
-5.00937e-12
-8.11306e-14
8.47028e-13
6.13196e-13
-2.82221e-11
-7.62858e-12
-7.94417e-12
2.55426e-12
4.7286e-12
3.95708e-12
2.61726e-11
4.96149e-12
3.96158e-12
1.13097e-11
1.29024e-12
4.72203e-13
1.71138e-13
-2.35872e-13
-3.26186e-13
-3.97764e-13
-4.0801e-13
-4.99257e-13
-3.66874e-12
-5.24615e-13
-5.53573e-13
-5.64112e-13
-6.03723e-13
-6.61098e-13
-7.23156e-13
-7.95047e-13
-8.78724e-13
-1.01265e-12
-1.14731e-12
-1.40749e-12
-1.33536e-12
-1.04612e-12
-1.97181e-11
-2.31594e-12
-2.20918e-12
-2.30134e-12
-2.84666e-13
1.79525e-12
2.71735e-12
-3.75348e-12
1.37077e-10
6.75758e-11
4.09542e-11
1.25574e-10
6.94508e-12
4.74713e-12
2.93878e-12
1.16682e-11
2.01238e-12
1.6605e-12
1.73399e-12
1.59027e-11
8.97055e-13
1.10923e-12
1.31997e-12
1.17937e-12
9.90475e-13
8.51924e-13
7.42457e-13
6.72101e-13
6.06554e-13
5.57999e-13
5.18922e-13
4.97333e-13
4.8389e-13
4.08561e-13
3.39127e-13
2.42767e-13
2.42897e-13
2.0289e-13
1.49329e-13
-1.68064e-13
2.57572e-13
2.22349e-13
6.92887e-12
2.54912e-12
3.45286e-12
3.54535e-11
1.22884e-11
9.84802e-12
1.81394e-11
2.29684e-12
1.32832e-12
1.10876e-11
3.91656e-12
4.19433e-12
4.18242e-12
1.47103e-11
2.1614e-12
2.04016e-12
6.21111e-12
1.32525e-12
1.44806e-11
2.69209e-12
-1.7848e-11
-3.05306e-11
-2.88547e-11
-2.30679e-11
-1.96356e-11
-2.10004e-11
-2.45816e-11
-2.38383e-11
-1.35283e-11
-5.10009e-12
-6.00708e-12
-3.24746e-12
-4.03493e-12
-7.76931e-12
-1.04131e-11
-1.04532e-11
-1.94962e-11
1.61442e-11
2.39772e-12
-2.49665e-11
-3.34612e-11
-1.99425e-11
-8.68547e-12
-6.36765e-12
-1.216e-11
-2.13879e-11
-2.5442e-11
-1.70743e-11
-4.59328e-12
-5.80451e-12
-3.03134e-12
-3.91283e-12
-7.33539e-12
-9.60416e-12
-7.99846e-12
-1.78815e-11
1.98427e-11
3.48387e-12
-2.73404e-11
-3.09638e-11
-1.20308e-11
1.27305e-12
4.49708e-13
-8.74514e-12
-2.01718e-11
-2.59152e-11
-1.94447e-11
-3.10749e-12
-5.40029e-12
-2.77828e-12
-3.86291e-12
-6.32074e-12
-7.37735e-12
-5.36194e-12
-1.70495e-11
2.09913e-11
2.89864e-12
-2.69328e-11
-2.9157e-11
-6.77368e-12
7.91015e-12
4.41916e-12
-7.40414e-12
-1.94333e-11
-2.54958e-11
-2.22549e-11
-3.99707e-12
-4.51913e-12
-2.27756e-12
-3.4929e-12
-5.07447e-12
-7.19874e-12
-4.8243e-12
-1.79916e-11
1.85067e-11
5.40534e-13
-2.62981e-11
-2.5077e-11
8.09e-13
1.30339e-11
4.76598e-12
-8.44646e-12
-1.75983e-11
-2.14365e-11
-2.30997e-11
-5.94676e-12
-3.18892e-12
-1.45564e-12
-3.07297e-12
-4.82319e-12
-5.68069e-12
-3.09109e-12
-1.65672e-11
1.16697e-11
-3.41761e-12
-2.48862e-11
-1.57407e-11
1.22552e-11
1.55242e-11
2.46138e-12
-9.54914e-12
-1.35289e-11
-1.55548e-11
-2.08842e-11
-8.37415e-12
-1.22932e-12
-4.38898e-13
-2.8421e-12
-7.8836e-12
2.59379e-12
1.92658e-12
-7.91912e-12
2.19389e-12
-9.08947e-12
-2.22369e-11
2.11203e-12
2.40621e-11
1.39913e-11
-9.27713e-13
-7.65304e-12
-7.68442e-12
-8.64405e-12
-1.60675e-11
-1.0524e-11
2.87821e-13
-1.56655e-12
-5.19286e-12
2.96331e-12
1.56089e-11
3.72974e-12
-2.12747e-11
-8.26037e-12
-1.47157e-11
-1.27275e-11
2.33496e-11
2.87388e-11
9.1335e-12
-1.74941e-12
-2.65942e-12
-2.48433e-12
-3.74046e-12
-1.27808e-11
-1.12899e-11
-8.64052e-13
-4.14784e-12
-3.62537e-12
1.50782e-11
2.37366e-11
2.13627e-11
2.04338e-11
-1.73797e-11
-1.71089e-11
5.05956e-12
3.91203e-11
2.20991e-11
3.94564e-12
2.50713e-12
2.98004e-12
2.2787e-13
-3.49863e-13
-9.38961e-12
-1.43164e-11
-3.16971e-12
-2.8592e-12
3.59991e-12
2.4604e-11
4.7938e-11
4.06487e-11
1.60626e-11
-2.2134e-11
-1.05903e-11
2.82794e-11
3.74136e-11
9.44357e-12
3.22731e-12
8.60008e-12
7.6516e-12
2.0429e-12
2.2941e-12
-1.28607e-12
-1.08729e-11
-6.31279e-12
-1.34945e-11
-1.84347e-11
4.92978e-11
5.94514e-11
7.79948e-11
1.35727e-10
-1.29707e-11
1.14877e-11
4.42796e-11
1.57608e-11
-2.07353e-12
2.82376e-12
9.1026e-12
6.88507e-12
1.29069e-12
2.8118e-12
2.71453e-12
-7.21128e-12
-1.12792e-11
-2.07811e-11
-1.42016e-11
2.29111e-11
-1.58127e-11
9.71915e-12
8.30865e-11
4.50177e-12
2.94113e-11
2.56488e-11
-8.36288e-12
-9.23864e-12
-4.96537e-12
-1.46189e-12
5.95632e-13
-2.00827e-12
4.10162e-13
1.74495e-12
-1.00821e-11
-1.64549e-11
-1.90896e-11
-5.25424e-12
-5.57304e-12
-3.52974e-11
-2.87203e-11
-2.61846e-11
1.46735e-11
2.74688e-11
4.35931e-13
-1.47813e-11
-1.15383e-11
-1.24139e-11
-1.21128e-11
-7.96159e-12
-6.97228e-12
-2.30201e-12
1.85215e-12
-1.23328e-11
-1.927e-11
-1.3832e-11
-2.32459e-12
-1.38494e-11
-1.96153e-11
-1.30023e-11
-1.91257e-11
1.17018e-11
1.58194e-11
-5.53442e-12
-1.04572e-11
-1.04389e-11
-1.29972e-11
-1.53313e-11
-1.55046e-11
-1.37916e-11
-7.61605e-12
1.92074e-12
-9.77155e-12
-1.76351e-11
-7.97345e-12
-4.36157e-12
-2.2262e-11
-2.44053e-11
-1.87748e-11
-5.42638e-12
1.45656e-12
3.87175e-12
-4.01564e-12
-8.15964e-12
-8.9357e-12
-9.89413e-12
-1.32977e-11
-1.85374e-11
-1.98867e-11
-1.49962e-11
8.73098e-14
-3.39791e-12
-1.2395e-11
-4.611e-12
-8.61571e-12
-2.63202e-11
-2.38162e-11
-1.85197e-11
-2.11916e-11
-6.1725e-12
-4.62583e-12
-3.82733e-12
-6.59573e-12
-7.09403e-12
-7.77617e-12
-1.02897e-11
-1.64954e-11
-2.17583e-11
-2.09609e-11
-3.077e-12
2.91025e-12
-5.68078e-12
-4.53073e-12
-1.4391e-11
-2.91073e-11
-2.59842e-11
-1.88907e-11
-1.69822e-11
-6.24806e-12
-6.86813e-12
-4.83743e-12
-4.61556e-12
-5.94112e-12
-6.52041e-12
-8.0979e-12
-1.28603e-11
-1.92087e-11
-2.20085e-11
-6.63402e-12
5.89289e-12
-1.03769e-12
-6.97707e-12
-2.02486e-11
-3.00835e-11
-2.63787e-11
-1.90157e-11
-1.2761e-11
-4.27483e-12
-7.40238e-12
-3.11374e-12
-2.89274e-12
-5.09326e-12
-6.24653e-12
-7.08566e-12
-1.00518e-11
-1.50621e-11
-2.03144e-11
-1.01972e-11
4.16149e-12
1.96447e-13
-1.07045e-11
-2.53935e-11
-2.97846e-11
-2.61177e-11
-1.83735e-11
-9.83819e-12
-3.19126e-12
-4.44399e-12
-5.90171e-13
-1.73706e-12
-4.46652e-12
-6.2207e-12
-6.51209e-12
-8.77929e-12
-1.32474e-11
-1.92055e-11
-1.46159e-11
-6.508e-13
-5.38058e-13
-1.34305e-11
-2.59031e-11
-2.97503e-11
-2.5255e-11
-1.71352e-11
-1.22923e-11
-1.42279e-12
-9.22975e-13
6.85538e-13
-1.04913e-12
-4.15778e-12
-6.18369e-12
-6.06209e-12
-7.90681e-12
-1.2202e-11
-1.84575e-11
-1.72009e-11
-8.13968e-12
-5.92689e-12
-1.51618e-11
-2.32804e-11
-2.95536e-11
-2.45734e-11
-1.61418e-11
-1.12096e-11
1.13072e-12
5.2346e-12
9.15964e-13
1.02697e-12
5.00937e-12
8.11306e-14
-8.47028e-13
-6.13196e-13
2.82221e-11
7.62858e-12
7.94417e-12
-2.55426e-12
-4.7286e-12
-3.95708e-12
-2.61726e-11
-4.96149e-12
-3.96158e-12
-1.13097e-11
-1.29024e-12
-4.72203e-13
-1.71138e-13
2.35872e-13
3.26186e-13
3.97764e-13
4.0801e-13
4.99257e-13
3.66874e-12
5.24615e-13
5.53573e-13
5.64112e-13
6.03723e-13
6.61098e-13
7.23156e-13
7.95047e-13
8.78724e-13
1.01265e-12
1.14731e-12
1.40749e-12
1.33536e-12
1.04612e-12
1.97181e-11
2.31594e-12
2.20918e-12
2.30134e-12
2.84666e-13
-1.79525e-12
-2.71735e-12
3.75348e-12
-1.37077e-10
-6.75758e-11
-4.09542e-11
-1.25574e-10
-6.94508e-12
-4.74713e-12
-2.93878e-12
-1.16682e-11
-2.01238e-12
-1.6605e-12
-1.73399e-12
-1.59027e-11
-8.97055e-13
-1.10923e-12
-1.31997e-12
-1.17937e-12
-9.90475e-13
-8.51924e-13
-7.42457e-13
-6.72101e-13
-6.06554e-13
-5.57999e-13
-5.18922e-13
-4.97333e-13
-4.8389e-13
-4.08561e-13
-3.39127e-13
-2.42767e-13
-2.42897e-13
-2.0289e-13
-1.49329e-13
1.68064e-13
-2.57572e-13
-2.22349e-13
-6.92887e-12
-2.54912e-12
-3.45286e-12
-3.54535e-11
-1.22884e-11
-9.84802e-12
-1.81394e-11
-2.29684e-12
-1.32832e-12
-1.10876e-11
-3.91656e-12
-4.19433e-12
-4.18242e-12
-1.47103e-11
-2.1614e-12
-2.04016e-12
-6.21111e-12
-1.32525e-12
-1.44806e-11
-2.69209e-12
1.7848e-11
3.05306e-11
2.88547e-11
2.30679e-11
1.96356e-11
2.10004e-11
2.45816e-11
2.38383e-11
1.35283e-11
5.10009e-12
6.00708e-12
3.24746e-12
4.03493e-12
7.76931e-12
1.04131e-11
1.04532e-11
1.94962e-11
-1.61442e-11
-2.39772e-12
2.49665e-11
3.34612e-11
1.99425e-11
8.68547e-12
6.36765e-12
1.216e-11
2.13879e-11
2.5442e-11
1.70743e-11
4.59328e-12
5.80451e-12
3.03134e-12
3.91283e-12
7.33539e-12
9.60416e-12
7.99846e-12
1.78815e-11
-1.98427e-11
-3.48387e-12
2.73404e-11
3.09638e-11
1.20308e-11
-1.27305e-12
-4.49708e-13
8.74514e-12
2.01718e-11
2.59152e-11
1.94447e-11
3.10749e-12
5.40029e-12
2.77828e-12
3.86291e-12
6.32074e-12
7.37735e-12
5.36194e-12
1.70495e-11
-2.09913e-11
-2.89864e-12
2.69328e-11
2.9157e-11
6.77368e-12
-7.91015e-12
-4.41916e-12
7.40414e-12
1.94333e-11
2.54958e-11
2.22549e-11
3.99707e-12
4.51913e-12
2.27756e-12
3.4929e-12
5.07447e-12
7.19874e-12
4.8243e-12
1.79916e-11
-1.85067e-11
-5.40534e-13
2.62981e-11
2.5077e-11
-8.09e-13
-1.30339e-11
-4.76598e-12
8.44646e-12
1.75983e-11
2.14365e-11
2.30997e-11
5.94676e-12
3.18892e-12
1.45564e-12
3.07297e-12
4.82319e-12
5.68069e-12
3.09109e-12
1.65672e-11
-1.16697e-11
3.41761e-12
2.48862e-11
1.57407e-11
-1.22552e-11
-1.55242e-11