/*--------------------------------*- C++ -*----------------------------------*\
| =========                 |                                                 |
| \\      /  F ield         | OpenFOAM: The Open Source CFD Toolbox           |
|  \\    /   O peration     | Version:  4.1                                   |
|   \\  /    A nd           | Web:      www.OpenFOAM.org                      |
|    \\/     M anipulation  |                                                 |
\*---------------------------------------------------------------------------*/
FoamFile
{
    version     2.0;
    format      ascii;
    class       volVectorField;
    location    "29";
    object      U;
}
// * * * * * * * * * * * * * * * * * * * * * * * * * * * * * * * * * * * * * //

dimensions      [0 1 -1 0 0 0 0];

internalField   nonuniform List<vector> 
1280
(
(-8.17142e-16 -3.71407 -3.21932)
(-8.89671e-16 -2.58181 -3.11622)
(-6.61943e-16 -2.67033 -2.20055)
(-7.42165e-16 -2.09058 -2.4528)
(-8.51391e-16 -1.76304 -2.94728)
(-5.8631e-17 -1.17636 -1.54758)
(6.12125e-16 -0.913592 -1.83507)
(5.8315e-16 -0.668006 -2.15732)
(-5.83307e-15 0.134005 -3.35796)
(-5.67446e-15 0.318649 -2.35805)
(-5.90016e-15 0.72088 -2.02463)
(1.53146e-15 1.34609 -3.25538)
(3.50022e-15 1.5843 -2.37095)
(2.94223e-15 1.98103 -2.07278)
(4.88013e-15 2.8082 -3.23742)
(3.58554e-15 2.59931 -2.48366)
(2.86293e-15 3.35143 -2.1201)
(1.92219e-15 2.88218 -3.98073)
(9.32426e-16 4.82433 -1.7701)
(3.41249e-16 2.59111 -5.96006)
(7.02105e-16 4.55344 2.4507)
(-9.67679e-16 4.63099 7.3268)
(-1.3382e-15 4.58547 8.72126)
(-1.63185e-15 5.05606 9.24993)
(-1.67389e-15 5.03045 9.43097)
(-2.04824e-15 5.43879 10.6127)
(-7.73383e-16 4.55351 7.6668)
(-2.15227e-15 8.56675 12.8427)
(-2.27107e-15 8.78519 12.9625)
(-2.31431e-15 8.78723 13.0991)
(-2.47681e-15 8.84497 13.1891)
(-2.7122e-15 8.82782 13.2402)
(-2.9668e-15 8.85218 13.1806)
(-3.26173e-15 8.76004 13.1016)
(-3.60502e-15 8.78374 12.9186)
(-4.15447e-15 8.60371 12.7223)
(-4.70692e-15 8.65163 12.4799)
(-5.7743e-15 8.36046 12.3561)
(-5.4784e-15 8.42769 12.6852)
(-4.29177e-15 8.22569 13.7553)
(-3.43222e-15 9.76609 14.1506)
(-1.86019e-15 6.38165 9.34086)
(-1.77444e-15 5.3144 9.07509)
(-1.81626e-15 4.22434 8.94532)
(2.42433e-16 2.69001 8.84818)
(1.44197e-15 1.7285 5.47225)
(2.18261e-15 0.926291 5.12188)
(-3.01484e-15 0.574701 4.63878)
(2.46098e-14 -0.252384 -0.643451)
(5.399e-14 -0.542155 -3.75594)
(3.26645e-14 0.282054 -3.65956)
(2.1858e-14 -0.0771213 -4.42159)
(5.57837e-15 -0.0968359 -1.78997)
(3.81295e-15 0.561621 1.14366)
(2.36046e-15 -0.247749 3.58902)
(2.03102e-15 -0.820145 7.52983)
(1.65814e-15 -2.52507 9.20729)
(1.33373e-15 -3.52972 9.06787)
(1.39276e-15 -4.59156 9.19017)
(2.77994e-15 -8.72357 14.3224)
(3.68022e-15 -7.71064 14.5534)
(4.5507e-15 -7.93142 13.672)
(5.41527e-15 -7.82259 12.9468)
(4.83844e-15 -8.14257 12.9232)
(4.06349e-15 -8.11537 13.1575)
(3.49507e-15 -8.32191 13.4038)
(3.04598e-15 -8.32862 13.691)
(2.75734e-15 -8.4518 13.8934)
(2.48843e-15 -8.45927 14.0896)
(2.28923e-15 -8.52148 14.1875)
(2.12891e-15 -8.49816 14.2275)
(2.04034e-15 -8.4662 14.1598)
(1.98519e-15 -8.35123 13.9666)
(8.61262e-17 -4.65272 8.45162)
(1.39129e-15 -5.64009 9.77165)
(9.95966e-16 -5.35391 8.79071)
(9.96499e-16 -5.30257 7.97455)
(8.3237e-16 -4.85161 6.92845)
(6.1263e-16 -4.97869 5.68679)
(-6.89492e-16 -4.76528 0.352716)
(1.86141e-16 -3.21333 -6.15446)
(1.52845e-16 -4.68908 -2.56889)
(1.17763e-15 -3.40504 -4.64678)
(1.84218e-15 -3.4295 -3.44944)
(2.49529e-15 -2.5581 -3.54767)
(6.27868e-15 -2.35313 -3.95098)
(8.88052e-15 -1.23102 -1.95666)
(7.23989e-15 -0.866396 -2.55609)
(3.41768e-15 -0.101413 -4.46059)
(1.5455e-15 0.773023 -3.08281)
(8.44345e-16 1.25111 -2.62353)
(2.73241e-15 2.26371 -3.84667)
(2.89283e-15 2.52069 -2.59497)
(3.03113e-15 3.17123 -2.4354)
(3.02253e-15 3.20744 -2.12955)
(2.50016e-15 4.56865 -3.212)
(1.56199e-15 4.36498 -2.17536)
(1.47451e-15 4.93295 -1.83665)
(1.05105e-15 5.25576 -2.65473)
(9.57727e-16 5.97232 -2.48456)
(1.60896e-15 -0.193027 1.14548)
(2.99122e-16 0.787617 2.70704)
(-1.98311e-15 2.60625 5.1017)
(-3.39229e-15 3.12297 6.26001)
(-3.20608e-15 3.41958 6.20092)
(-2.56309e-15 4.46895 5.95396)
(-2.18173e-15 5.63836 5.65487)
(-2.33338e-15 6.9952 5.36688)
(-2.73129e-15 8.16694 5.034)
(-2.6487e-15 7.73003 4.3349)
(-1.50314e-15 2.13365 2.43993)
(-5.66677e-16 -6.61969 0.274515)
(-6.67453e-16 -10.2413 -0.343639)
(-3.60829e-16 -10.073 -0.926379)
(-4.48326e-16 -7.45381 -1.78866)
(-8.63257e-16 -3.47 -2.56047)
(-1.15701e-15 0.506687 -3.48714)
(-1.16146e-15 1.83276 -4.22959)
(-2.16624e-15 2.6545 -4.59479)
(1.7938e-15 -0.619787 0.718324)
(2.66413e-16 -0.531464 2.56938)
(-2.77406e-15 1.36817 5.2747)
(-3.71791e-15 2.78456 6.12583)
(-2.21583e-15 3.53725 5.75608)
(-9.65052e-16 4.63926 5.55613)
(-7.07517e-16 5.81967 5.27131)
(-1.35111e-15 7.19086 4.97764)
(-2.37644e-15 8.48683 4.59095)
(-2.82689e-15 8.50133 3.93922)
(-1.89714e-15 3.59496 2.70018)
(-5.10364e-16 -5.93901 0.349227)
(-6.44946e-16 -9.94009 -0.0595357)
(-3.36815e-16 -9.6381 -0.642339)
(-4.34759e-16 -6.88588 -1.62303)
(-8.15043e-16 -2.77941 -2.77322)
(-1.06713e-15 0.981675 -4.49057)
(-8.88718e-16 2.12349 -5.72216)
(-1.98683e-15 2.03529 -5.20622)
(2.20474e-15 -1.03311 0.977965)
(3.87097e-16 -1.25376 2.87955)
(-3.03783e-15 1.05404 5.20097)
(-3.44042e-15 2.83247 5.84129)
(-1.33675e-15 3.64499 5.50088)
(1.4145e-16 4.69271 5.33892)
(4.99676e-17 5.90267 5.04254)
(-9.71682e-16 7.31098 4.77092)
(-2.24131e-15 8.64512 4.3834)
(-2.87947e-15 8.66484 3.71859)
(-2.16052e-15 3.88434 2.93029)
(-3.45277e-16 -5.4186 1.1607)
(-6.00032e-16 -9.71834 0.382888)
(-3.08698e-16 -9.32853 -0.144905)
(-4.29212e-16 -6.46183 -1.26908)
(-7.02304e-16 -2.13753 -2.85586)
(-8.19706e-16 1.62367 -5.26205)
(-5.95771e-16 2.20239 -6.9173)
(-1.89439e-15 1.42479 -6.11796)
(2.33237e-15 -1.42942 1.52666)
(3.22071e-16 -2.0792 3.36143)
(-2.99253e-15 0.344925 5.11283)
(-3.23966e-15 2.6896 5.65725)
(-7.52631e-16 3.75333 5.18184)
(8.78906e-16 4.81366 4.86659)
(4.91018e-16 6.0297 4.48304)
(-8.22682e-16 7.44436 4.26519)
(-2.15926e-15 8.85752 4.007)
(-2.83286e-15 9.01374 3.50346)
(-2.47276e-15 4.43751 3.21099)
(-4.44118e-16 -4.96497 2.19461)
(-5.02126e-16 -9.42875 0.881355)
(-2.53063e-16 -9.02111 0.551862)
(-3.881e-16 -5.90836 -0.6886)
(-5.6383e-16 -1.17834 -2.69201)
(-7.9986e-16 2.55184 -6.00417)
(-5.36033e-16 2.48315 -8.04728)
(-1.99907e-15 0.594226 -7.16474)
(2.0563e-15 -1.86048 2.28059)
(6.00593e-17 -2.68503 4.02222)
(-2.92201e-15 0.0623015 5.05191)
(-2.78633e-15 2.75479 5.31652)
(8.98888e-17 3.954 4.71163)
(1.44822e-15 4.97777 4.24479)
(5.29554e-16 6.14573 3.8098)
(-9.38496e-16 7.5175 3.67141)
(-1.95537e-15 8.94892 3.56767)
(-2.38183e-15 9.06507 3.29817)
(-2.56664e-15 4.48008 3.66691)
(-6.60751e-16 -4.53867 3.27166)
(-3.54325e-16 -9.06334 1.51304)
(-1.61738e-16 -8.72133 1.44903)
(-3.41441e-16 -5.23773 0.119436)
(-5.3591e-16 0.149356 -2.22544)
(-6.31188e-16 3.73354 -5.93195)
(-3.43454e-16 2.67794 -7.40641)
(-1.8408e-15 -0.0803731 -7.00828)
(1.29663e-15 -2.25571 3.16436)
(-3.79734e-16 -3.11846 4.70268)
(-2.76513e-15 -0.12541 4.99638)
(-1.74897e-15 2.82703 4.88677)
(1.36168e-15 4.18692 4.20455)
(1.72491e-15 5.17818 3.62436)
(2.73487e-16 6.25356 3.20059)
(-1.06102e-15 7.54262 3.17033)
(-1.50321e-15 8.97875 3.25513)
(-1.72831e-15 9.00844 3.29172)
(-2.32047e-15 4.39716 4.28748)
(-9.30462e-16 -4.12692 4.45144)
(-1.36591e-16 -8.68517 2.51117)
(-4.87664e-17 -8.46911 2.53483)
(-3.15789e-16 -4.51947 1.16251)
(-8.75956e-16 1.61024 -1.64701)
(2.88199e-16 4.56143 -2.50355)
(2.14064e-16 2.7156 -2.01796)
(-8.79902e-16 -1.35172 -3.56036)
(2.43766e-16 -2.60923 4.0479)
(-1.00994e-15 -3.35162 5.28904)
(-2.47076e-15 -0.0322234 4.88944)
(2.3467e-16 3.04713 4.40321)
(2.67356e-15 4.45684 3.71026)
(1.55459e-15 5.3848 3.10622)
(-1.03079e-16 6.3245 2.78715)
(-8.50338e-16 7.49879 2.87718)
(-8.53824e-16 8.88381 3.15012)
(-9.6045e-16 8.72522 3.52986)
(-1.78528e-15 3.97952 5.03733)
(-1.16933e-15 -3.84787 5.76199)
(3.19802e-17 -8.2895 3.93174)
(-1.74061e-16 -8.20297 3.74232)
(-5.76984e-16 -3.69125 2.29086)
(3.29257e-16 2.00343 1.09376)
(1.73432e-15 4.0007 5.0886)
(4.14416e-16 4.12643 6.05772)
(-2.36385e-15 2.04327 1.1825)
(-9.17819e-16 -2.88782 4.80762)
(-1.63508e-15 -3.38489 5.68067)
(-1.41416e-15 0.244541 4.65589)
(2.5944e-15 3.29765 3.95007)
(3.1932e-15 4.70832 3.28987)
(1.01483e-15 5.55048 2.75938)
(-1.94378e-16 6.33703 2.63201)
(-2.95491e-16 7.3979 2.82838)
(-2.76036e-16 8.69342 3.25242)
(-4.15607e-16 8.31578 3.91524)
(-1.42009e-15 3.38999 5.66088)
(-1.25443e-15 -3.73071 6.90126)
(-9.60058e-17 -7.87304 5.4165)
(-4.60871e-16 -7.85277 4.78767)
(-4.02819e-16 -3.43919 3.72283)
(1.67535e-15 0.524611 6.93544)
(2.6374e-15 2.43157 11.1909)
(2.37363e-15 1.82082 12.8889)
(2.27042e-15 -4.79309 14.7803)
(-1.93107e-15 -3.07986 5.34637)
(-1.90099e-15 -3.22742 5.83078)
(5.62174e-16 0.652047 4.31597)
(4.3467e-15 3.58482 3.60018)
(2.45545e-15 4.92813 2.96995)
(4.38404e-16 5.64735 2.61821)
(2.7857e-16 6.29021 2.69072)
(3.31116e-16 7.25745 2.93595)
(2.53189e-17 8.43214 3.46033)
(-3.88737e-17 7.84118 4.30376)
(-1.04329e-15 2.6945 5.94304)
(-1.59071e-15 -3.7748 7.47712)
(-3.5219e-16 -7.45193 6.41472)
(-3.17689e-16 -7.59215 5.39502)
(3.9999e-16 -4.26669 5.44324)
(2.73378e-15 -0.865359 9.63861)
(5.32645e-15 2.08125 10.8801)
(4.51652e-15 3.29877 10.7482)
(1.78473e-15 1.10465 11.0559)
(-2.45933e-15 -3.18664 5.60599)
(-1.1767e-15 -2.91256 5.75548)
(3.14216e-15 1.09013 3.9817)
(4.15707e-15 3.84931 3.41522)
(1.04929e-15 5.09359 2.80082)
(3.58591e-16 5.66508 2.67517)
(9.82866e-16 6.20766 2.83502)
(8.50177e-16 7.09957 3.07075)
(2.26989e-16 8.13063 3.68315)
(2.549e-16 7.39361 4.66553)
(-1.42896e-16 2.0651 5.99274)
(-1.07431e-15 -3.89775 7.40966)
(-7.01421e-16 -7.06536 6.86105)
(-1.49938e-15 -7.47577 5.86704)
(-2.45995e-15 -5.1607 6.8208)
(5.47753e-15 -1.72184 9.68778)
(6.60571e-15 1.70552 9.32124)
(8.66609e-15 2.4269 7.85156)
(1.50807e-14 0.181788 3.4232)
(-1.44119e-15 -3.23298 5.64595)
(1.27641e-15 -2.50956 5.59154)
(4.91995e-15 1.50766 3.86219)
(1.7512e-15 4.09082 3.40132)
(-2.30392e-16 5.21309 2.79921)
(3.13751e-16 5.63942 2.83033)
(9.97639e-16 6.12745 2.92147)
(7.65008e-16 6.92471 3.13778)
(1.4341e-16 7.78114 3.84134)
(3.12423e-16 6.96577 4.96586)
(3.01614e-16 1.55716 6.04845)
(-8.01253e-16 -4.07238 6.99514)
(-1.25324e-15 -6.84214 6.99774)
(-2.30901e-15 -7.57787 6.48916)
(-1.57796e-15 -5.9485 8.40734)
(2.54568e-15 -1.94606 11.6004)
(-1.75696e-15 2.71898 11.8696)
(1.07991e-15 4.92724 10.8808)
(9.23183e-15 4.43937 7.79706)
(5.00196e-16 -3.25471 5.64731)
(3.26792e-15 -2.1066 5.53502)
(2.84986e-15 1.88559 4.00448)
(-9.29209e-16 4.32842 3.45616)
(-1.02652e-15 5.30688 2.90768)
(-5.51707e-16 5.62581 2.95436)
(-1.62432e-16 6.08254 2.90752)
(6.61813e-17 6.74127 3.10353)
(-2.23141e-16 7.38694 3.84978)
(4.55736e-17 6.53406 5.08015)
(1.93883e-16 1.22294 6.13606)
(-1.12023e-15 -4.25253 6.47297)
(-1.82832e-15 -6.87531 6.91399)
(-2.12107e-15 -7.98402 7.17532)
(-5.83804e-16 -6.9984 9.55374)
(-6.19227e-16 -2.66206 11.0568)
(-3.92194e-15 2.24592 8.2011)
(-3.19115e-15 4.38625 9.16364)
(-2.90941e-15 5.12122 11.4324)
(1.63039e-15 -3.28142 5.80604)
(3.05208e-15 -1.74703 5.64294)
(4.84368e-17 2.26391 4.1741)
(-1.64237e-15 4.58154 3.46333)
(-1.28204e-15 5.39142 3.01945)
(-1.37932e-15 5.64713 2.97189)
(-1.34587e-15 6.06409 2.82617)
(-8.84621e-16 6.56142 2.9898)
(-7.74697e-16 6.97647 3.70735)
(-2.55779e-16 6.06955 4.95888)
(2.05795e-16 1.02097 6.29194)
(-1.37032e-15 -4.40772 6.21757)
(-2.14111e-15 -7.17575 6.94431)
(-1.53689e-15 -8.60481 8.13234)
(-2.58288e-16 -7.56203 10.221)
(-1.53882e-15 -1.85197 8.61409)
(-2.17948e-15 3.11122 2.99694)
(-1.4447e-15 3.1267 3.12338)
(-2.12508e-15 5.64909 7.82414)
(1.3002e-15 -3.27249 6.24432)
(1.75772e-15 -1.355 5.8417)
(-6.14935e-16 2.68584 4.20297)
(-1.16191e-15 4.83841 3.39716)
(-1.15988e-15 5.48055 3.0711)
(-1.44414e-15 5.70853 2.88449)
(-1.70348e-15 6.06183 2.69359)
(-1.72274e-15 6.39682 2.80724)
(-1.5324e-15 6.57907 3.46605)
(-8.46227e-16 5.52331 4.66895)
(2.13416e-16 0.76653 6.55036)
(-1.08573e-15 -4.52353 6.67118)
(-1.95946e-15 -7.68507 7.41689)
(-8.85939e-16 -9.2701 9.31981)
(-4.84619e-16 -7.26752 10.3676)
(-2.47356e-15 0.217221 6.30077)
(-2.7117e-15 4.45418 2.00852)
(-2.08608e-15 3.08903 0.905236)
(-6.02931e-16 0.118522 -1.8338)
(1.6184e-16 -3.19769 6.94634)
(4.30194e-16 -0.867186 6.00183)
(-4.46183e-16 3.17454 4.05547)
(-9.06627e-16 5.07477 3.30388)
(-9.92855e-16 5.57726 3.07016)
(-1.09935e-15 5.80776 2.75959)
(-1.47752e-15 6.08199 2.53666)
(-2.05971e-15 6.25926 2.55975)
(-2.20964e-15 6.20421 3.13478)
(-1.66624e-15 4.85785 4.24993)
(9.70109e-18 0.212426 6.78175)
(-3.77546e-16 -4.75029 7.77565)
(-1.37723e-15 -8.25337 8.43411)
(-5.12334e-16 -9.72136 10.293)
(-9.57301e-16 -6.32188 9.61843)
(-2.92447e-15 1.76052 3.55552)
(-2.64625e-15 5.30723 0.895648)
(-2.05774e-15 4.34184 -0.330503)
(-2.35462e-15 2.08392 -2.86448)
(-6.85833e-16 -2.93188 7.59023)
(-5.13981e-16 -0.136254 5.94371)
(-4.25259e-16 3.71921 3.76574)
(-7.32859e-16 5.26448 3.25643)
(-7.88225e-16 5.68354 3.02952)
(-8.64018e-16 5.93421 2.65384)
(-1.1433e-15 6.13601 2.39262)
(-1.83283e-15 6.17207 2.29175)
(-2.41759e-15 5.86339 2.73496)
(-2.32899e-15 4.06973 3.67053)
(-3.41889e-16 -0.679712 6.74276)
(3.23361e-16 -5.21 8.81527)
(-6.31197e-16 -8.72415 9.52624)
(-5.03414e-16 -9.68869 10.5785)
(-1.599e-15 -4.61982 7.88492)
(-3.23415e-15 3.43566 0.676682)
(-2.88713e-15 6.00845 -0.52351)
(-2.09897e-15 4.73518 -1.95533)
(-1.88691e-15 2.14397 -2.80097)
(-6.94228e-16 -2.57848 7.83022)
(-7.63126e-16 0.679395 5.5182)
(-5.37492e-16 4.22608 3.45928)
(-5.1284e-16 5.39216 3.2815)
(-6.60125e-16 5.80898 2.96349)
(-7.2449e-16 6.07434 2.58592)
(-8.99766e-16 6.22469 2.27664)
(-1.42892e-15 6.14834 2.05948)
(-2.1343e-15 5.61817 2.31937)
(-2.44539e-15 3.2697 2.88721)
(-7.37113e-16 -1.81854 6.04877)
(6.54765e-16 -5.87288 9.06296)
(-1.15299e-16 -8.96255 10.0122)
(-7.7523e-16 -9.07446 9.95273)
(-2.24984e-15 -2.35418 5.52976)
(-3.34261e-15 4.95634 -0.90605)
(-2.93096e-15 6.49224 -1.91026)
(-2.11285e-15 5.17227 -2.98247)
(-1.41789e-15 2.47481 -3.37536)
(-4.74981e-16 -1.97392 7.5155)
(-8.22487e-16 1.60606 4.93113)
(-3.45971e-16 4.60138 3.34571)
(-3.21416e-16 5.47145 3.31748)
(-5.65918e-16 5.94508 2.91312)
(-6.94059e-16 6.20703 2.54941)
(-7.87295e-16 6.32964 2.1909)
(-1.11686e-15 6.16969 1.88772)
(-1.67356e-15 5.49882 1.93684)
(-2.25715e-15 2.60461 2.00888)
(-1.13302e-15 -3.1357 4.69078)
(4.62388e-16 -6.83812 8.25649)
(2.18274e-17 -9.07223 9.48205)
(-1.18939e-15 -7.91981 8.47495)
(-2.8215e-15 0.0228125 2.78649)
(-3.3094e-15 6.17895 -1.67471)
(-2.90197e-15 6.94246 -2.97367)
(-2.0415e-15 5.33175 -3.74047)
(-1.09313e-15 2.3659 -3.7341)
(-3.54584e-16 -1.57885 7.00719)
(-4.93776e-16 2.31047 4.33203)
(-6.55746e-17 4.8738 3.43375)
(-1.93007e-16 5.57336 3.31085)
(-4.9628e-16 6.10869 2.90356)
(-6.91189e-16 6.36502 2.52811)
(-7.23565e-16 6.47169 2.1306)
(-9.75477e-16 6.24959 1.7682)
(-1.47193e-15 5.49683 1.61288)
(-2.13394e-15 2.10872 1.27489)
(-1.62399e-15 -4.24443 2.95157)
(-7.23111e-17 -7.69956 6.85125)
(-5.97842e-17 -8.96964 8.62285)
(-1.49228e-15 -6.63342 6.69848)
(-2.87812e-15 1.99645 0.129651)
(-3.30558e-15 7.09432 -2.18336)
(-2.80611e-15 7.38563 -3.56309)
(-1.90391e-15 5.45059 -4.08629)
(-1.36581e-15 2.19666 -4.07253)
(-1.58087e-16 -0.778829 6.00258)
(-1.02553e-16 3.07916 4.06298)
(7.61708e-17 5.06652 3.56034)
(-1.1657e-16 5.73248 3.29659)
(-4.61975e-16 6.30381 2.91764)
(-6.87077e-16 6.57914 2.51755)
(-6.73565e-16 6.69253 2.09188)
(-8.78535e-16 6.45916 1.68748)
(-1.35578e-15 5.72022 1.37772)
(-2.05083e-15 2.2316 0.973627)
(-1.91122e-15 -5.43222 1.45126)
(-9.04409e-16 -9.27511 4.0485)
(-6.58544e-16 -9.0474 6.14991)
(-1.68465e-15 -4.359 4.39522)
(-2.58671e-15 3.69455 -0.503914)
(-3.28373e-15 7.91134 -2.50081)
(-2.73037e-15 7.85513 -3.87586)
(-1.79354e-15 5.58709 -4.2178)
(-1.24551e-15 1.845 -4.3871)
(9.41134e-17 14.1599 23.9147)
(-4.98701e-15 18.6165 31.2955)
(-4.79879e-15 16.5192 26.4238)
(-5.1406e-15 14.0877 22.355)
(-5.19616e-15 13.2931 20.4109)
(-6.2148e-15 13.9168 21.1524)
(-5.74073e-15 13.2783 19.5448)
(-5.56879e-15 11.9591 17.4683)
(-5.87668e-15 11.0763 15.8237)
(-5.92998e-15 10.3754 14.7736)
(-6.49645e-15 9.86813 13.8299)
(-7.19898e-15 9.1514 12.8998)
(-7.89161e-15 8.49806 11.757)
(-8.8095e-15 7.53565 10.6604)
(-1.01133e-14 6.77617 9.28436)
(-1.21162e-14 5.45312 7.9504)
(-1.46827e-14 4.83849 6.5883)
(-1.755e-14 3.76384 6.30867)
(-1.33824e-14 5.91209 8.80633)
(-8.26369e-15 6.60558 12.4318)
(5.50234e-17 14.1753 24.1834)
(-4.55258e-15 16.7984 28.9924)
(-3.83388e-15 14.2628 24.3033)
(-4.57115e-15 12.1247 20.8568)
(-4.4212e-15 11.7649 20.0094)
(-6.16377e-15 12.5973 21.3942)
(-4.65859e-15 10.9359 18.3495)
(-5.14002e-15 9.35341 15.8425)
(-5.68176e-15 8.81931 14.7571)
(-5.39509e-15 8.28648 14.0512)
(-6.28611e-15 7.86448 13.0068)
(-7.02402e-15 7.03816 11.9569)
(-7.59589e-15 6.48686 10.5538)
(-8.78589e-15 5.46762 9.42368)
(-1.04193e-14 4.94036 7.83175)
(-1.25576e-14 3.59417 6.45468)
(-1.52904e-14 3.48973 5.20783)
(-1.62124e-14 2.92262 5.62042)
(-1.06853e-14 5.45269 8.28872)
(-7.34512e-15 5.7481 10.81)
(2.40125e-17 14.2835 25.0988)
(-1.62191e-15 17.4206 29.983)
(-1.38999e-15 15.1497 26.1043)
(-1.77915e-15 12.9123 22.079)
(-1.71908e-15 12.2893 20.9539)
(-3.67865e-15 12.9427 21.997)
(-2.34517e-15 11.2375 18.9919)
(-2.54077e-15 9.88737 16.7317)
(-2.71176e-15 9.28939 15.4831)
(-2.55056e-15 8.66981 14.632)
(-2.96894e-15 8.2108 13.5255)
(-3.16107e-15 7.38353 12.4778)
(-3.64647e-15 6.83206 11.0729)
(-4.20729e-15 5.83596 9.92312)
(-4.94665e-15 5.36406 8.47152)
(-5.86041e-15 4.14771 7.17546)
(-7.17672e-15 3.98193 5.90702)
(-8.06406e-15 3.30903 5.95553)
(-5.56081e-15 5.31292 7.98129)
(-3.84902e-15 5.38865 10.1141)
(1.11685e-17 13.9417 24.6747)
(4.18538e-16 17.4765 29.8265)
(3.52745e-16 15.0902 26.2549)
(3.7054e-16 12.791 21.8191)
(3.97974e-16 12.1912 20.9806)
(-2.41758e-15 12.8967 22.0048)
(-2.24699e-15 10.9755 18.644)
(-2.62071e-15 9.59591 16.3964)
(-2.82882e-15 9.03867 15.1894)
(-2.69644e-15 8.40895 14.3774)
(-3.06425e-15 7.95776 13.2109)
(-3.48818e-15 7.08079 12.1233)
(-4.04107e-15 6.51603 10.639)
(-4.52076e-15 5.4576 9.41336)
(-5.33112e-15 4.97406 7.90442)
(-6.27492e-15 3.76001 6.658)
(-7.68942e-15 3.6164 5.40571)
(-7.78113e-15 3.02238 5.55838)
(-5.40069e-15 4.85344 7.31771)
(-4.32765e-15 4.72077 8.88265)
(-3.00289e-18 13.878 24.8517)
(-9.95515e-17 17.6985 29.9325)
(-8.0733e-17 15.2767 26.916)
(-8.38412e-17 13.0644 22.1412)
(-9.37512e-17 12.3942 21.4561)
(5.47426e-16 13.09 22.3994)
(5.2274e-16 11.0808 18.8392)
(5.86323e-16 9.74707 16.7313)
(6.28886e-16 9.25942 15.5252)
(5.89469e-16 8.5897 14.6961)
(6.86858e-16 8.13957 13.4899)
(7.36373e-16 7.25426 12.3685)
(8.37462e-16 6.6756 10.8914)
(9.63438e-16 5.64174 9.61531)
(1.13745e-15 5.12549 8.1282)
(1.32191e-15 4.05604 7.00682)
(1.58224e-15 3.90925 5.87575)
(1.88099e-15 3.26229 5.79182)
(1.30463e-15 4.55721 6.81831)
(8.79529e-16 4.26918 8.05169)
(7.13355e-19 13.8136 24.8715)
(2.30752e-17 17.7957 29.7809)
(1.80007e-17 15.3874 27.3608)
(1.90668e-17 13.3076 22.2634)
(2.24547e-17 12.5265 21.6472)
(-1.21722e-16 13.1964 22.5844)
(-1.17046e-16 11.1603 18.784)
(-1.27543e-16 9.80167 16.8375)
(-1.37041e-16 9.40457 15.6139)
(-1.3151e-16 8.6609 14.7502)
(-1.50443e-16 8.20423 13.4907)
(-1.5879e-16 7.30105 12.3152)
(-1.79667e-16 6.67772 10.8186)
(-2.08008e-16 5.65076 9.46162)
(-2.45786e-16 5.0279 7.8965)
(-2.87078e-16 3.99247 6.73001)
(-3.37232e-16 3.75532 5.60879)
(-4.26039e-16 3.04455 5.34808)
(-3.33629e-16 4.01402 5.971)
(-2.68991e-16 3.69219 6.99828)
(-1.52838e-19 13.9503 25.2394)
(-5.35494e-18 17.9201 29.7122)
(-4.02249e-18 15.51 27.8947)
(-4.33492e-18 13.6205 22.5057)
(-5.3909e-18 12.7022 21.9781)
(2.67958e-17 13.294 22.8879)
(2.66e-17 11.2991 18.8502)
(2.78891e-17 9.92753 17.156)
(2.9922e-17 9.64454 15.9191)
(2.99082e-17 8.81924 15.0019)
(3.32007e-17 8.35006 13.6969)
(3.53963e-17 7.45173 12.4715)
(4.00002e-17 6.78618 10.9813)
(4.5712e-17 5.79339 9.56277)
(5.35146e-17 5.08794 7.96283)
(6.22247e-17 4.0803 6.70759)
(7.28599e-17 3.73954 5.53409)
(9.86002e-17 2.92776 5.02144)
(8.81743e-17 3.59629 5.24142)
(7.07734e-17 3.21544 6.1388)
(3.00949e-20 14.1574 25.64)
(1.24791e-18 18.0636 29.7015)
(9.03373e-19 15.6012 28.3329)
(9.78875e-19 13.9812 22.7503)
(1.31525e-18 12.8826 22.2331)
(-5.781e-18 13.3438 23.0744)
(-6.1562e-18 11.5133 18.9348)
(-6.19203e-18 10.1082 17.4485)
(-6.60122e-18 9.89919 16.1928)
(-6.82875e-18 9.03381 15.1914)
(-7.41159e-18 8.50931 13.8642)
(-7.97577e-18 7.65002 12.5586)
(-8.9609e-18 6.9064 11.0706)
(-1.01234e-17 5.9498 9.56097)
(-1.16886e-17 5.1323 7.91881)
(-1.35304e-17 4.12285 6.50792)
(-1.59945e-17 3.57472 5.15158)
(-2.32428e-17 2.63573 4.30001)
(-2.4394e-17 3.06703 4.28523)
(-1.76292e-17 2.60779 4.96434)
(-5.72808e-21 14.4913 26.2068)
(-2.8987e-19 18.3188 29.9092)
(-2.04057e-19 15.6402 28.7214)
(-2.19106e-19 14.4533 23.1889)
(-3.24596e-19 13.1027 22.573)
(1.23692e-18 13.3801 23.2538)
(1.43744e-18 11.8012 19.2035)
(1.40473e-18 10.4336 17.8862)
(1.47163e-18 10.1992 16.6339)
(1.55215e-18 9.3866 15.5027)
(1.66154e-18 8.75321 14.1845)
(1.78649e-18 7.96581 12.772)
(1.98083e-18 7.12523 11.2601)
(2.21634e-18 6.1971 9.63296)
(2.51723e-18 5.26914 7.93423)
(2.90563e-18 4.26653 6.35466)
(3.44958e-18 3.479 4.79342)
(5.04863e-18 2.44666 3.54592)
(7.03068e-18 2.45744 3.14512)
(7.38722e-18 1.84167 3.26559)
(1.07104e-21 14.9493 26.9099)
(6.68347e-20 18.5912 30.229)
(4.65731e-20 15.5931 28.9639)
(4.86068e-20 15.0304 23.8961)
(7.80712e-20 13.3501 22.9729)
(-2.59669e-19 13.435 23.3041)
(-3.26582e-19 12.0964 19.7793)
(-3.18121e-19 10.9561 18.4654)
(-3.27386e-19 10.4913 17.243)
(-3.48323e-19 9.84143 15.9297)
(-3.69882e-19 9.04642 14.6563)
(-3.96318e-19 8.36175 13.1367)
(-4.35096e-19 7.42126 11.5848)
(-4.84844e-19 6.51721 9.82594)
(-5.42245e-19 5.49413 8.03907)
(-6.04498e-19 4.47761 6.23284)
(-7.33983e-19 3.40224 4.36153)
(-1.00421e-18 2.24014 2.60621)
(-1.5095e-18 1.57001 1.51389)
(-2.29204e-18 0.749066 0.58572)
(-1.9079e-22 15.4607 27.7102)
(-1.527e-20 18.6908 30.4714)
(-1.08931e-20 15.5217 28.8543)
(-1.07279e-20 15.5607 24.9424)
(-2.03035e-20 13.5215 23.5391)
(5.86453e-20 13.4818 22.9852)
(7.48289e-20 12.217 20.6658)
(7.32086e-20 11.572 19.0925)
(7.46675e-20 10.5772 17.95)
(7.9889e-20 10.209 16.4421)
(8.33971e-20 9.20032 15.2635)
(8.39905e-20 8.65109 13.6812)
(8.19718e-20 7.6023 12.1433)
(8.20263e-20 6.75693 10.3279)
(9.11662e-20 5.66291 8.50092)
(1.17551e-19 4.55276 6.4362)
(9.52208e-20 3.08204 4.00721)
(1.67893e-19 1.56295 1.79096)
(3.02572e-19 0.0300568 -0.249419)
(-3.16844e-18 -2.03743 -3.86469)
(3.20957e-23 15.8517 28.5612)
(3.50578e-21 18.4898 30.4373)
(2.56074e-21 15.5475 28.0519)
(2.40011e-21 15.5462 25.7909)
(3.4092e-21 13.5605 24.2679)
(-1.06457e-20 13.5629 22.1747)
(-1.59198e-20 11.8915 21.364)
(-1.55599e-20 11.8455 19.4157)
(-1.51604e-20 10.3746 18.3055)
(-1.54372e-20 10.1699 16.7297)
(-1.70529e-20 8.99103 15.5834)
(-2.28618e-20 8.49151 13.9824)
(-3.48579e-20 7.31791 12.4605)
(-4.90303e-20 6.47761 10.6227)
(-5.32383e-20 5.21247 8.69582)
(-5.44563e-20 3.76071 6.12395)
(-1.98424e-19 1.41386 2.17011)
(-3.79225e-19 -1.31151 -2.04557)
(-1.28289e-18 -1.97813 -2.72688)
(-1.78614e-18 -0.872207 -0.663814)
(-3.20747e-24 16.0565 29.4801)
(-8.12364e-22 18.4486 29.8567)
(-6.2034e-22 15.2279 28.1724)
(-6.16507e-22 15.6693 25.6828)
(-8.16507e-22 13.6055 24.5859)
(2.50618e-21 13.4769 22.4695)
(3.81375e-21 11.884 21.1355)
(4.55242e-21 11.6062 19.478)
(5.5688e-21 10.3847 18.2824)
(6.44985e-21 9.96196 16.7961)
(6.09085e-21 8.90669 15.4895)
(1.9798e-21 8.20688 13.897)
(-7.55373e-21 7.05856 12.2135)
(-1.94498e-20 5.99209 10.2668)
(-2.47735e-20 4.61133 8.1208)
(-2.18404e-20 3.02654 5.47054)
(-1.37678e-19 0.768933 1.61239)
(-6.22015e-19 -1.87759 -3.18929)
(-1.50526e-18 -1.60852 -2.81597)
(-2.33192e-18 1.60318 2.48399)
(2.52009e-25 16.2066 30.2695)
(1.8778e-22 18.2673 29.1298)
(1.29207e-22 14.9432 28.0984)
(8.7631e-23 15.7551 25.4779)
(1.6296e-22 13.4165 24.5546)
(-3.7756e-22 13.4902 22.5785)
(-3.05263e-22 11.9306 21.365)
(2.5664e-22 11.6097 19.7066)
(7.78958e-22 10.4341 18.4972)
(8.13588e-22 9.87345 17.0337)
(-2.80087e-22 8.89413 15.6299)
(-4.65019e-21 7.9854 13.9315)
(-1.50717e-20 6.7754 11.9545)
(-2.87168e-20 5.50706 9.78375)
(-3.89448e-20 4.2177 7.63977)
(-3.95736e-20 2.91478 5.40937)
(-1.72892e-20 1.54128 3.13119)
(-1.15298e-19 -0.0161781 -0.0233945)
(-6.78757e-19 -0.753127 -1.70299)
(-1.08326e-18 -0.542859 -1.16219)
(6.86882e-25 16.0857 30.655)
(-4.51175e-23 18.1719 28.5749)
(-5.0975e-23 14.6812 27.9971)
(-7.34588e-23 15.719 25.1959)
(-5.02234e-23 13.1205 24.3547)
(3.09019e-22 13.3068 22.1666)
(7.80752e-22 11.6385 21.0117)
(1.31028e-21 11.2015 19.3262)
(1.83961e-21 10.0999 18.035)
(2.21971e-21 9.39213 16.601)
(1.54681e-21 8.4481 15.1718)
(-2.69264e-21 7.49819 13.5057)
(-1.23913e-20 6.41207 11.6353)
(-2.6624e-20 5.31331 9.61324)
(-3.96282e-20 4.10741 7.40394)
(-4.66994e-20 2.90823 5.11511)
(-5.12531e-20 1.57998 2.76606)
(-4.95465e-20 0.596291 0.742239)
(-1.55973e-19 -0.347553 -1.12953)
(-6.13595e-19 -1.15127 -2.48911)
(3.2612e-25 15.8462 30.8892)
(8.97867e-24 18.4666 28.5496)
(-5.74788e-24 14.644 28.0633)
(-2.1218e-23 15.8987 25.2191)
(1.4829e-23 13.3573 24.3853)
(1.24654e-22 13.5065 22.2399)
(3.88406e-22 12.0325 21.0321)
(7.81724e-22 11.5598 19.3863)
(1.30184e-21 10.6105 18.0665)
(2.0337e-21 9.94827 16.6638)
(2.97228e-21 9.19468 15.3607)
(3.80875e-21 8.51145 14.0384)
(3.70534e-21 7.81377 12.6862)
(7.50909e-22 7.0572 11.1731)
(-8.30381e-21 6.10747 9.30457)
(-2.38728e-20 4.79043 6.89964)
(-4.17423e-20 3.27647 4.36916)
(-6.39543e-20 2.1771 2.58788)
(-6.06193e-20 0.0357087 -0.461731)
(-4.48112e-19 -2.12772 -4.70718)
(2.9548e-25 15.4872 31.1124)
(-4.32167e-24 18.5069 28.3163)
(-1.41298e-23 14.3718 28.0368)
(-1.96001e-23 15.6479 25.2999)
(2.54357e-23 13.29 24.4247)
(1.78138e-22 13.2598 22.4981)
(4.30446e-22 12.0163 21.271)
(7.83143e-22 11.4861 19.7775)
(1.29203e-21 10.685 18.5016)
(2.01976e-21 10.0741 17.2018)
(2.80177e-21 9.4307 15.957)
(3.0019e-21 8.8082 14.6771)
(1.38717e-21 8.11809 13.2865)
(-3.58532e-21 7.25052 11.6057)
(-1.37778e-20 5.95545 9.23581)
(-3.39866e-20 3.85736 5.70982)
(-5.69516e-20 1.71846 2.27183)
(-7.65051e-20 -0.289626 -0.498007)
(-2.14129e-19 -2.395 -3.52081)
(-3.85279e-19 -2.79573 -5.575)
(1.37164e-25 14.3552 30.7425)
(-1.03216e-24 18.104 27.6912)
(-7.43779e-24 13.4709 27.6333)
(-5.84903e-24 14.429 25.2475)
(3.69488e-23 12.3338 24.3124)
(1.47646e-22 11.8996 22.7039)
(3.33833e-22 10.7935 21.492)
(6.21506e-22 10.0811 20.1731)
(1.0945e-21 9.28722 18.9694)
(1.7839e-21 8.60275 17.7746)
(2.33492e-21 7.92346 16.5972)
(1.7175e-21 7.24635 15.3584)
(-1.54111e-21 6.48976 13.9487)
(-8.814e-21 5.48772 12.061)
(-2.33581e-20 3.8081 8.96612)
(-5.82483e-20 1.05189 3.84994)
(-1.33827e-19 -1.88054 -1.89164)
(-2.26832e-19 -2.87184 -3.96826)
(-3.07101e-19 -2.91419 -4.17163)
(-2.96206e-19 -2.21108 -3.68116)
(-1.2283e-26 11.3028 28.5217)
(-5.94775e-25 16.9569 24.9939)
(-1.8506e-24 11.9901 25.4091)
(2.03043e-25 12.6274 23.7022)
(1.69763e-23 10.8783 22.9673)
(5.64544e-23 10.2013 21.8854)
(1.20101e-22 9.19068 20.9762)
(2.31753e-22 8.39582 20.0286)
(4.61829e-22 7.60012 19.1175)
(8.73294e-22 6.88017 18.2084)
(1.35139e-21 6.19666 17.2999)
(1.41761e-21 5.54489 16.3569)
(2.52149e-22 4.8922 15.3213)
(-2.87242e-21 4.20107 14.0969)
(-8.08053e-21 3.43692 12.5479)
(-1.56406e-20 2.61395 10.4889)
(-2.86389e-20 1.80534 7.79763)
(-5.326e-20 1.00601 4.64219)
(-8.99551e-20 -0.0734968 1.104)
(-8.97992e-20 -1.01372 -1.67421)
(-1.54355e-27 2.64884 17.0374)
(1.14804e-25 8.06495 13.6673)
(4.8556e-25 5.17722 14.5387)
(9.22329e-25 5.00157 14.1391)
(1.86948e-25 4.07538 14.102)
(-5.60341e-24 3.51254 13.9274)
(-2.36921e-23 2.93611 13.7688)
(-5.67839e-23 2.4641 13.5748)
(-8.22024e-23 2.05322 13.3603)
(-3.0527e-23 1.71764 13.1237)
(2.09404e-22 1.4561 12.8723)
(7.39337e-22 1.27434 12.6123)
(1.5634e-21 1.17521 12.349)
(2.51314e-21 1.16945 12.076)
(3.28067e-21 1.26957 11.7687)
(3.62905e-21 1.43545 11.4073)
(3.61761e-21 1.68963 10.912)
(3.41986e-21 2.31517 9.9722)
(2.73675e-21 2.50932 8.55713)
(9.45039e-22 -0.22226 6.44156)
(-2.16512e-27 -2.66002 17.0771)
(-6.82784e-26 -8.08015 13.6975)
(-2.78517e-25 -5.18929 14.5626)
(-5.92781e-25 -5.01787 14.157)
(4.96963e-26 -4.09825 14.114)
(4.40162e-24 -3.54654 13.9347)
(1.59845e-23 -2.98669 13.7754)
(3.54691e-23 -2.53763 13.5883)
(5.63191e-23 -2.1541 13.3879)
(6.42158e-23 -1.84409 13.1657)
(4.28938e-23 -1.59698 12.9164)
(-1.56282e-23 -1.41026 12.6345)
(-1.02329e-22 -1.28358 12.3182)
(-1.88612e-22 -1.22902 11.9633)
(-2.29528e-22 -1.26496 11.5616)
(-1.68626e-22 -1.36299 11.131)
(4.61671e-23 -1.5419 10.6373)
(3.73104e-22 -2.04968 9.76975)
(4.78693e-22 -2.1486 8.35556)
(-4.2614e-24 0.289298 6.04204)
(2.53692e-26 -11.2001 28.4301)
(1.18143e-25 -16.9916 24.7977)
(-6.6591e-25 -11.9644 25.2143)
(-2.23227e-24 -12.6835 23.4381)
(2.40414e-25 -10.9394 22.6636)
(1.84686e-23 -10.3049 21.5289)
(6.3183e-23 -9.32616 20.5805)
(1.29681e-22 -8.5785 19.6062)
(1.92315e-22 -7.83977 18.6914)
(2.16565e-22 -7.19816 17.8091)
(1.82904e-22 -6.62347 16.9654)
(1.11404e-22 -6.12148 16.1176)
(7.44165e-23 -5.66246 15.1961)
(1.78777e-22 -5.21945 14.1333)
(4.85146e-22 -4.77488 12.8938)
(7.51717e-22 -4.25747 11.4213)
(-3.46217e-22 -3.45353 9.44845)
(-6.61123e-21 -2.04415 6.11016)
(-2.24985e-20 0.343145 0.504991)
(-3.60079e-20 2.12455 -4.17311)
(3.82301e-26 -14.1112 30.1783)
(-5.05121e-25 -17.812 27.1518)
(-2.09177e-24 -13.1796 27.058)
(-4.76393e-24 -14.1078 24.6459)
(3.11361e-24 -11.9964 23.6912)
(4.16109e-23 -11.5285 22.0684)
(1.12388e-22 -10.3956 20.8552)
(1.76692e-22 -9.64906 19.5477)
(1.62478e-22 -8.80734 18.3464)
(4.04846e-23 -8.02867 17.0866)
(-7.14297e-23 -7.17978 15.6864)
(1.08553e-22 -6.27326 14.0278)
(8.09239e-22 -5.37155 12.1496)
(1.80407e-21 -4.62878 10.2531)
(2.28151e-21 -4.12322 8.58348)
(1.44747e-21 -3.79414 7.18978)
(-9.12184e-22 -3.38459 5.67734)
(-2.89669e-21 -2.52193 3.34884)
(-4.67478e-20 -0.204731 -1.1652)
(-7.64591e-20 -0.141576 -1.06623)
(8.44382e-27 -15.4678 30.7681)
(2.09394e-24 -18.0297 28.1183)
(-2.29304e-25 -14.1938 27.762)
(-3.96055e-24 -15.0732 25.2343)
(3.83181e-24 -12.8763 24.3203)
(4.12157e-23 -12.5881 22.5586)