/*--------------------------------*- C++ -*----------------------------------*\
| =========                 |                                                 |
| \\      /  F ield         | OpenFOAM: The Open Source CFD Toolbox           |
|  \\    /   O peration     | Version:  4.1                                   |
|   \\  /    A nd           | Web:      www.OpenFOAM.org                      |
|    \\/     M anipulation  |                                                 |
\*---------------------------------------------------------------------------*/
FoamFile
{
    version     2.0;
    format      ascii;
    class       volScalarField;
    location    "27";
    object      p;
}
// * * * * * * * * * * * * * * * * * * * * * * * * * * * * * * * * * * * * * //

dimensions      [0 2 -2 0 0 0 0];

internalField   nonuniform List<scalar> 
1280
(
-5.22119
55.8658
15.6174
-0.846355
95.1567
26.016
-3.18564
29.827
84.1721
15.9979
-70.5782
51.4805
-94.55
-282.299
-110.067
-432.012
-787.694
-706.534
-1016.29
-2348.25
-1396.1
265.778
1706.22
2435.53
2457.01
3103.34
-1503.89
443.58
593.93
368.425
256.405
135.863
-5.76501
-164.578
-325.528
-524.149
-686.173
-929.76
-994.933
-1433.82
-3854.89
-1851.6
-1199.29
-939.458
824.458
196.693
345.394
442.066
637.725
496.368
504.568
538.007
394.781
277.102
107.07
702.297
-901.927
-1130.56
-1961.94
-4795.67
-333.209
107.598
17.0649
30.6524
-20.9519
-9.99095
-9.6914
7.4091
17.9423
26.2558
25.6824
36.2168
-36.4364
-2281.87
1557.25
941.034
1043.2
792.73
424.303
-736.922
-1983.84
-579.94
-691.972
-475.471
-265.374
-99.8971
-54.3082
64.685
124.428
161.557
197.657
209.905
219
215.787
219.171
202.145
133.399
121.957
26.2385
68.8013
-15.4861
-225.653
-86.0851
-51.0108
-78.1201
-20.3509
-13.1472
21.1134
56.6212
105.354
161.075
267.422
98.7917
36.2921
-34.5575
-104.65
-111.718
-36.4921
53.6629
-68.1655
-354.353
-79.6907
0.648001
-65.1894
35.9697
45.2125
114.5
200.021
300.287
406.935
683.134
373.535
199.069
-91.0073
-385.437
-357.237
-36.696
147.944
-184.008
-319.018
-49.4453
29.176
-69.4948
55.8737
59.5923
146.237
251.872
381.555
517.445
952.698
663.455
310.772
-269.556
-837.402
-727.601
-80.3934
224.595
-300.229
-227.151
-35.1541
64.8786
-82.1391
72.5837
71.3023
176.912
304.152
456.648
619.389
1225.32
924.552
454.024
-435.014
-1321.41
-1137.37
-105.576
323.268
-394.424
-173.464
66.5966
96.1007
-97.1216
90.2825
83.5396
206.164
355.711
538.73
753.938
1421.66
1075.13
590.017
-491.462
-1596.61
-1411.99
-163.096
414.379
-479.04
-143.162
174.797
109.943
-98.5513
100.035
89.0647
222.635
391.35
554.282
962.415
1691.95
1249.91
765.333
-376.55
-1647.54
-1289.29
-0.986768
559.317
-546.484
-98.8287
215.675
237.586
-155.385
107.894
86.2158
227.916
405.253
561.871
1112.6
1907.17
1489.99
990.049
-60.1497
-1469.37
-1180.37
-66.4209
470.147
-538.216
-135.511
212.76
301.966
-221.81
94.4154
80.8061
222.74
405.583
599.558
1130.13
1856.7
1566.94
1025.43
182.467
-997.387
-849.472
442.056
1295.83
-476.888
-120.367
156.739
133.557
-262.855
59.3784
74.6697
205.764
382.679
589.95
1083.8
1741.32
1514.8
781.399
84.1261
-567.714
-153.038
1138.7
5093.19
-441.906
-81.1975
115.105
-64.6652
-233.472
17.7287
67.221
176.86
340.327
543.888
976.557
1518.15
1343.75
408.653
-173.891
-318.082
385.954
1302.57
4156.36
-425.825
-44.0943
137.03
-92.5776
-95.3837
-11.0307
60.8501
138.972
284.328
474.328
830.953
1256.3
1072.91
-53.0771
-537.088
-133.163
749.942
1307.09
4224.31
-411.029
-3.03266
227.762
50.3472
95.2841
6.74399
56.8686
100.789
217.689
379.738
663.95
968.344
693.296
-548.236
-890.235
131.943
1105.66
1489.06
5142.32
-405.178
29.4711
361.558
283.95
309.753
70.3435
59.8894
62.6513
145.432
282.053
481.779
636.23
225.583
-719.342
-1019.26
180.679
1277.38
1230.79
1053.53
-419.496
38.4971
489.786
484.737
481.118
167.892
103.732
62.165
96.639
177.719
295.918
316.904
-167.894
-674.539
-951.405
159.212
866.246
647.716
-184.557
-454.457
15.8665
562.071
590.601
554.881
256.583
165.513
107.395
102.872
133.121
163.75
34.5993
-348.632
-632.411
-781.402
139.552
725.825
652.158
168.283
-493.651
-13.0429
566.162
635.875
546.963
307.69
216.577
163.89
143.037
145.371
101.288
-162.718
-284.096
-574.824
-519.35
142.162
515.809
434.888
201.912
-494.159
-27.2486
500.036
652.465
500.378
298.737
209.185
173.158
152.527
143.665
54.8071
-254.693
-131.916
-456.474
-299.629
110.967
364.351
346.382
182.529
-434.836
-38.9016
401.292
653.861
420.414
273.119
197.488
169.763
143.625
108.027
-36.0198
-317.007
-162.846
-287.644
-218.797
68.1426
254.476
230.703
131.717
-299.787
-60.5961
358.451
666.558
291.901
147.801
85.829
84.138
80.7961
71.2295
-15.5483
-90.7059
-271.304
-208.512
-181.372
35.0513
172.645
159.697
82.7388
-115.181
-91.0363
155.591
360.065
81.284
129.52
94.3294
78.6936
55.8344
1.26185
-115.548
-54.4283
-293.744
-220.04
-162.346
-22.0842
77.9532
70.1023
35.375
7228.53
7457.27
7494.27
7569.73
7499.72
7423.75
7280.33
7126.56
6967.85
6828.94
6702.75
6594.84
6504.36
6431.17
6373.3
6330.24
6299.25
6276.21
6261.23
6231.39
1210.87
1604.17
1742.36
1961.8
2139.3
2313.14
2478.96
2631.66
2779.8
2920.64
3058.87
3197.93
3338.71
3486.1
3635.6
3796.24
3949.21
4119.93
4245.11
4421.2
-420.722
-261.211
-213.655
-170.69
-90.7932
-37.6002
34.6144
98.1474
170.26
246.788
331.758
427.819
535.515
661.683
802.064
976.292
1160.5
1423.99
1660.53
2012.9
-3017.49
-3303.59
-3367.69
-3575.76
-3696.13
-3872.23
-4002.71
-4126.03
-4204.5
-4249.19
-4250.74
-4210.55
-4129.47
-4010.21
-3866.04
-3699
-3538.14
-3338.56
-3182.01
-2822.96
1372.79
769.014
526.74
79.0584
-275.317
-715.041
-1130.5
-1559.99
-1958.15
-2332.1
-2660.44
-2936.91
-3144.55
-3271.24
-3305.43
-3266.47
-3177.48
-3047.23
-3046.88
-3092.69
6962.04
6637.69
6507.49
6301.95
6135.69
5936.78
5748.64
5553.94
5367.82
5179.98
4993.42
4799.44
4597.14
4390.31
4204.71
4060.22
3972.83
4031.53
4117.38
3729.65
8346.14
8370.05
8349.01
8354.47
8333.17
8294.53
8225.73
8109.04
7954.54
7749.29
7506.09
7224.88
6920.27
6609.22
6330.3
6129.23
6022.8
5961
5992.94
5854.39
6993.23
7149.35
7231.03
7343.73
7441.74
7551.2
7672.85
7776.01
7876.73
7940.8
7970.03
7940.72
7850.67
7702.27
7537.64
7409.32
7381.43
7418.27
7476.26
7455.91
5755.8
5900.04
5965.07
6020.57
6094.78
6146.84
6233.82
6288.44
6365.58
6432.05
6505.88
6579.79
6654.32
6728.58
6800.95
6878.54
6954.79
7050.52
7113.37
7207.47
4145.05
4318.19
4397.96
4459.19
4588.26
4643.01
4771.07
4843.04
4948.17
5034.38
5126.74
5215.76
5303.37
5391.77
5476.63
5566.8
5648.07
5747.99
5811.28
5919.52
2476.24
2631.19
2745.55
2786.03
2970.67
3009.13
3177.17
3259.44
3402.08
3519.02
3654.78
3790.62
3931.84
4079.97
4228.26
4386.6
4533.83
4698.02
4808.04
4989.63
345.502
323.938
444.696
356.271
495.898
413.524
508.954
469.758
518.202
509.72
531.738
545.433
577.52
631.471
709.029
833.817
986.755
1229.33
1418.5
1705.35
449.26
150.192
177.209
-80.1646
-94.5591
-332.877
-401.097
-611.356
-727.819
-913.978
-1051.68
-1195.59
-1301.19
-1384.75
-1446.87
-1488.12
-1509.16
-1484.09
-1466.04
-1244.44
3636.04
3270.83
3263.12
2919.11
2859.61
2540.02
2413.81
2125.19
1939.38
1673.73
1461.69
1238.27
1067.15
926.901
833.915
766.023
721.42
698.669
612.888
471.951
6340.67
6231.75
6379.57
6215.61
6410.9
6278.36
6420.51
6350.66
6412.5
6371.85
6364.91
6307.36
6237.09
6126.93
5984.04
5804.56
5610.48
5474.63
5407.7
5156.87
4731.63
4712.37
4910.59
4776.38
5055.51
4978.35
5200.83
5240.2
5413.56
5529.45
5687.69
5831.08
5980.23
6116.69
6226.76
6278.54
6279.23
6253.67
6290.25
6367.48
4823.79
4654.48
4839.97
4451
4617.84
4343.77
4375.3
4240.02
4216.43
4159.24
4140.45
4126.79
4130.44
4148.96
4183.2
4252.08
4345.1
4494.44
4638.47
4841.11
4309.68
3914.82
4488.47
3937.09
4137.68
3826.01
3753.72
3533.08
3366.33
3165.34
2975.89
2781.78
2592.11
2407.92
2232.99
2094.09
2007.12
2061
2156.87
2379.39
3775.82
2085.09
2830.47
1862.43
1778.85
1237.95
921.924
533.057
221.562
-64.2213
-290.274
-460.095
-563.114
-596.228
-551.986
-425.321
-219.634
57.2955
335.938
606.326
56859.4
50335.8
46872.7
42531
38911.1
35332.1
32041.3
28916.4
25983
23210.4
20590.5
18108.1
15748.6
13495.9
11356.7
9303.83
7279.32
5652.77
4067.07
1169.81
57839
51316.1
47853.2
43511.7
39891.9
36312.9
33022
29897
26963.3
24190.4
21570.2
19087.5
16727.6
14474.4
12335.3
10283.4
8261.53
6637.9
5051.99
2151.73
4772.37
3080.26
3825.46
2856.45
2772.56
2230.92
1914.45
1524.98
1212.94
926.554
699.889
529.501
425.968
392.382
436.276
562.819
768.501
1046.18
1324.37
1590.15
5262.74
4863.18
5434.35
4879.05
5076.33
4760.35
4684.01
4458.42
4286.75
4080.18
3885.07
3684.9
3488.98
3298.2
3116.82
2973.18
2883.91
2937.61
3030.88
3250.57
5717.1
5542.88
5728.13
5334.86
5498.87
5220.54
5247.12
5108.04
5079.54
5019.29
4997.19
4982.48
4987.38
5011.93
5055.21
5131.84
5227.01
5377.01
5522.61
5730.75
5684.44
5670.61
5873.4
5740.39
6025.49
5946.97
6174.57
6216.61
6394.73
6519.34
6687.43
6842.29
6997.62
7128.55
7220.45
7249.25
7241.77
7242.04
7304.1
7397.87
7405.77
7328.4
7484.09
7339.99
7543.2
7423.29
7572.21
7509.11
7573.19
7531.98
7520.2
7455.11
7375.23
7257.98
7117.49
6956.48
6791.26
6671.02
6621
6410.39
5345.1
5015.06
4996.45
4622.4
4582.44
4249.11
4153.84
3875.35
3723.77
3482.48
3301.41
3107.37
2969.36
2859.85
2792
2741.94
2707.75
2675.34
2584.98
2404.83
2228.99
1832.69
1996.7
1704.19
1733.2
1569.59
1510.93
1343.21
1188.19
972.795
798.693
624.715
484.777
366.821
271.043
194.73
139.656
125.272
110.963
288.881
2066.74
2131.94
2238.23
2191.29
2200.92
2153.05
2114.71
2053.03
1992.93
1931.71
1900.58
1879.92
1875.67
1896.99
1945.5
2042.58
2173.42
2383.1
2551.79
2799.75
3455.15
3670.26
3722.84
3788.07
3825.45
3868.78
3920.38
3988.78
4084.4
4209.54
4348.32
4491.62
4636.75
4785.95
4932.38
5083.33
5220.55
5365.05
5458.34
5600.48
4761.12
4959.94
5000.13
5068.44
5108.16
5158.59
5212.32
5279.36
5351.41
5438
5528.79
5612.79
5688.23
5759.89
5825.48
5893.24
5952.07
6020.29
6061.35
6125.73
6242.22
6355.59
6370.29
6416.23
6449.7
6493.36
6534.09
6580.62
6594.7
6590.29
6588.04
6581.4
6578.01
6597.48
6636.61
6686.46
6728.58
6777.73
6803.87
6851.25
6631.27
6707.32
6718.22
6764.93
6809.53
6864.51
6921.86
6958.01
6897.17
6806.24
6854.38
6951.7
7028.36
7069.23
7041.51
6956.69
6885.11
6857.11
6880.24
6883.01
8409.11
8291.36
8240.37
8212.67
8210.51
8212.92
8206.96
8160.27
8077.52
7949.99
7790.97
7588.08
7313.55
6996.24
6691.97
6464.54
6322.47
6264.2
6280.99
6017.95
4149.35
3654.43
3443.29
3122.13
2831.01
2489.66
2124.15
1733.19
1383.65
1111.39
909.935
775.587
710.469
719.607
790.425
901.075
1025.99
1133.1
1094.96
902.059
-456.691
-763.073
-813.004
-1000.74
-1153
-1348.45
-1540.02
-1700.31
-1790.44
-1832.6
-1863.19
-1902.82
-1947.83
-1989.11
-2034.79
-2070.38
-2091.92
-2073.34
-2070.58
-1743.96
698.082
895.97
986.382
1062.79
1129.72
1166.72
1189.59
1195.3
1190.24
1177.3
1164.09
1160.61
1172.76
1218.58
1295.17
1450.67
1677.05
2076.64
2463.93
2963.04
5058.5
5341.44
5419.9
5580.54
5711.54
5850.55
5995.38
6145.38
6301.04
6466.2
6643.04
6835.13
7042.37
7270.94
7513.59
7780.65
8042.95
8317.14
8507.04
8737.64
6037.87
6314.93
6387.72
6565.18
6685.69
6817.99
6943.38
7062.66
7180.71
7295.23
7407.13
7516.13
7621.12
7724.71
7823.21
7922.16
8009.41
8098.45
8148.54
8204.1
10357.2
10425.8
10370.9
10355.9
10272.6
10199.4
10095.9
9988.59
9867.77
9757.17
9652.88
9556.52
9469.03
9389.49
9318.96
9253.84
9198.44
9135.46
9091.05
8976.55
)
;

boundaryField
{
    outletWall
    {
        type            fixedValue;
        value           uniform 0;
    }
    fineWalls
    {
        type            zeroGradient;
    }
    fineFrontAndBack
    {
        type            zeroGradient;
    }
    fineplugLeft
    {
        type            cyclicAMI;
        value           nonuniform List<scalar> 
20
(
4698.35
4810
4835.02
4902.16
4959.37
5033.53
5112.02
5202.33
5303.04
5413.48
5536.84
5693.07
5789.97
6281.49
6559.67
6491.18
6542.89
6336.66
6018.97
5503.6
)
;
    }
    fineplugRight
    {
        type            cyclicAMI;
        value           nonuniform List<scalar> 
20
(
7114.6
7294.36
7311.78
7364.88
7398.89
7453.17
7509.65
7576.7
7648.8
7727.55
7810.87
7901.46
7983.58
8688.45
8470.95
8406.29
8493.34
8455.28
8425.53
8138.36
)
;
    }
    inletOutletLeft
    {
        type            cyclicAMI;
        value           nonuniform List<scalar> 
20
(
4698.35
4810
4835.02
4902.16
4959.37
5033.53
5112.02
5202.33
5303.04
5413.48
5536.84
5693.07
5789.97
6281.49
6559.67
6491.18
6542.89
6336.66
6018.97
5503.6
)
;
    }
    inletLeft
    {
        type            zeroGradient;
    }
    inletWallsLeft
    {
        type            zeroGradient;
    }
    inletFacesLeft
    {
        type            zeroGradient;
    }
    inletOutletRight
    {
        type            cyclicAMI;
        value           nonuniform List<scalar> 
20
(
7114.6
7294.36
7311.78
7364.88
7398.89
7453.17
7509.65
7576.7
7648.8
7727.55
7810.87
7901.46
7983.58
8688.45
8470.95
8406.29
8493.34
8455.28
8425.53
8138.36
)
;
    }
    inletRight
    {
        type            zeroGradient;
    }
    inletWallsRight
    {
        type            zeroGradient;
    }
    inletFacesRight
    {
        type            zeroGradient;
    }
}


// ************************************************************************* //
