/*--------------------------------*- C++ -*----------------------------------*\
| =========                 |                                                 |
| \\      /  F ield         | OpenFOAM: The Open Source CFD Toolbox           |
|  \\    /   O peration     | Version:  4.1                                   |
|   \\  /    A nd           | Web:      www.OpenFOAM.org                      |
|    \\/     M anipulation  |                                                 |
\*---------------------------------------------------------------------------*/
FoamFile
{
    version     2.0;
    format      ascii;
    class       volScalarField;
    location    "2";
    object      p;
}
// * * * * * * * * * * * * * * * * * * * * * * * * * * * * * * * * * * * * * //

dimensions      [0 2 -2 0 0 0 0];

internalField   nonuniform List<scalar> 
1280
(
0.1189
2.45086
2.27043
1.83213
4.59228
4.39673
3.97295
5.00266
7.23499
7.55268
6.67188
9.73995
10.0688
8.90785
12.1015
12.9195
12.0226
13.4179
17.0215
9.78168
20.9764
32.6388
37.9149
38.7518
42.521
48.2602
46.6258
50.5818
49.0889
48.9542
48.9999
48.3333
48.1371
47.2251
46.7358
45.5837
44.3424
43.7998
40.5067
41.4629
21.0133
25.4829
26.6203
26.9076
26.9235
27.7624
27.6298
27.5856
27.5529
27.6434
27.6397
27.5508
27.5547
27.6203
27.7774
26.7879
26.8378
26.5571
25.4242
20.8827
41.5735
40.5957
43.8793
44.4386
45.6797
46.8412
47.331
48.2464
48.4401
49.111
49.0649
49.1965
50.7175
46.9375
48.4971
42.7419
38.9551
38.115
32.8141
21.1329
9.96086
17.1625
13.5067
12.101
13.0088
12.1646
8.94925
10.1302
9.78612
6.68553
7.59258
7.26507
5.00277
3.96897
4.41429
4.61418
1.81119
2.27571
2.45574
0.0921902
0.0100554
0.0340333
0.0511827
0.0753761
0.102434
0.138309
0.186741
0.255565
0.349134
0.458029
0.531673
0.358251
-0.712297
-1.55296
-6.59618
-3.91818
0.0528844
1.93638
2.24088
0.0232175
0.0850476
0.128943
0.189172
0.253896
0.337564
0.448499
0.605677
0.81914
1.07225
1.30947
1.25145
-0.742152
-4.45248
-9.75815
-5.62511
0.269621
3.71988
3.55226
0.0355209
0.139488
0.214288
0.315827
0.424636
0.564213
0.748642
1.00965
1.36088
1.76115
2.12315
2.08497
-0.847167
-8.29394
-8.70727
-6.70925
0.723981
5.25207
4.50356
0.0445423
0.186751
0.286661
0.422379
0.565547
0.746442
0.982856
1.3146
1.74747
2.19408
2.54382
2.44993
-0.253227
-8.0423
-7.7622
-9.10843
1.39888
7.12047
6.13607
0.0515065
0.231836
0.354092
0.521273
0.694694
0.909858
1.18658
1.5677
2.03293
2.39066
2.43648
1.77888
-0.604574
-5.82777
-8.8822
-9.11177
1.39696
9.06717
6.75619
0.0558169
0.272279
0.411912
0.605154
0.801236
1.03829
1.336
1.73783
2.18948
2.32046
1.80749
0.420299
-1.5168
-3.60315
-9.30964
-7.60295
2.91009
11.9852
9.43197
0.057797
0.308421
0.460995
0.675518
0.887875
1.13644
1.43666
1.81375
2.15677
1.95896
1.23324
0.166235
-0.197399
0.105175
-6.90054
-9.30029
1.65205
12.9594
8.46606
0.0572888
0.338299
0.499018
0.729288
0.951725
1.20189
1.48604
1.84077
2.12977
1.82608
1.32719
1.184
2.28119
3.83658
-0.670218
-4.0555
8.07912
19.4639
12.2743
0.0555853
0.361287
0.526338
0.76685
0.992706
1.2347
1.50176
1.86099
2.12122
1.89401
1.5573
2.06712
3.70021
5.36157
2.48751
3.11534
20.1005
31.0879
24.3225
0.0528507
0.372549
0.53879
0.784862
1.01513
1.25937
1.52547
1.88383
2.14455
2.00015
1.76901
2.71907
4.46166
5.79548
3.37772
5.93089
24.9644
32.2921
25.8639
0.0528538
0.372556
0.538811
0.784921
1.01533
1.26001
1.52709
1.88755
2.15332
2.00745
1.76335
2.68785
4.42212
5.75731
3.36803
5.98856
24.9455
32.3116
26.0125
0.0555951
0.361311
0.526403
0.766984
0.992931
1.23494
1.50173
1.86044
2.12433
1.91293
1.5996
2.10321
3.694
5.28725
2.41685
3.28579
20.2136
30.9701
24.5447
0.0573036
0.338339
0.499126
0.729532
0.952298
1.20336
1.48969
1.84798
2.14434
1.86069
1.39401
1.26177
2.30807
3.71632
-0.911827
-3.76644
8.63759
19.6189
12.3753
0.0578159
0.308475
0.46114
0.675845
0.888595
1.13798
1.4398
1.81995
2.17156
1.99603
1.30453
0.260374
-0.128569
-0.0289042
-7.27508
-9.009
2.24205
13.1998
8.47285
0.0558377
0.272341
0.412077
0.605527
0.802059
1.0401
1.33988
1.74602
2.20768
2.35699
1.87639
0.529263
-1.39939
-3.71858
-9.56308
-7.50066
3.45377
12.1712
9.43476
0.0515267
0.231898
0.35426
0.521654
0.695534
0.911673
1.19038
1.57533
2.04849
2.4202
2.48896
1.86131
-0.532654
-5.99591
-8.9619
-9.11915
1.82091
9.24427
6.8155
0.0445602
0.186807
0.286814
0.422726
0.566306
0.748058
0.98617
1.32111
1.76028
2.21714
2.57866
2.49071
-0.258996
-8.22336
-7.94975
-8.94169
1.70584
7.26511
6.17375
0.0355344
0.139532
0.21441
0.316103
0.425236
0.565477
0.751209
1.01463
1.37039
1.77752
2.14416
2.09787
-0.864901
-8.24804
-8.93829
-6.55106
0.956761
5.36871
4.54955
0.0232261
0.085076
0.129022
0.189349
0.254281
0.33837
0.450123
0.608786
0.824943
1.08211
1.32143
1.252
-0.754255
-4.28688
-9.85818
-5.51957
0.444685
3.81198
3.57933
0.0100577
0.0340414
0.0512076
0.0754342
0.102562
0.138577
0.187275
0.256568
0.350941
0.460962
0.534528
0.352433
-0.730858
-1.47988
-6.54628
-3.82118
0.140388
1.98341
2.24478
122.593
120.449
120.276
118.089
117.223
115.026
113.707
112.088
110.924
109.406
108.487
107.259
106.733
105.674
105.515
104.592
104.665
103.948
104.034
103.647
103.555
103.428
104.247
103.829
104.551
104.221
104.579
104.241
104.348
103.995
103.981
103.548
103.553
103.033
103.115
102.563
102.695
102.223
102.326
102.055
108.533
107.857
108.642
107.708
108.139
107.66
107.75
107.469
107.46
107.211
107.209
106.92
106.98
106.623
106.752
106.357
106.505
106.153
106.232
106.003
105.233
104.852
105.77
105.016
105.576
105.283
105.487
105.378
105.487
105.409
105.514
105.404
105.553
105.389
105.585
105.393
105.593
105.441
105.568
105.539
104.918
104.533
105.5
104.691
105.223
104.977
105.126
105.069
105.144
105.111
105.194
105.14
105.261
105.172
105.328
105.225
105.381
105.316
105.414
105.446
102.417
102.101
103.177
102.402
103.058
102.91
103.15
103.188
103.328
103.388
103.516
103.557
103.699
103.716
103.869
103.879
104.021
104.06
104.15
104.265
100.357
99.932
101.049
100.275
101.085
100.876
101.261
101.299
101.509
101.615
101.774
101.877
102.026
102.113
102.254
102.336
102.456
102.557
102.63
102.781
99.1448
98.5181
99.4979
98.7888
99.7244
99.224
99.8105
99.7124
99.9705
100.059
100.213
100.332
100.464
100.577
100.695
100.806
100.899
101.021
101.074
101.218
99.0846
98.261
99.0436
98.2963
99.4265
98.5602
99.3156
99.044
99.2958
99.3285
99.4373
99.5286
99.6187
99.7159
99.7981
99.8992
99.9642
100.071
100.109
100.216
98.3717
97.544
98.4959
97.506
98.889
97.928
98.6808
98.4277
98.6412
98.6878
98.7808
98.878
98.9676
99.0747
99.1652
99.2811
99.361
99.483
99.5366
99.6512
95.0528
94.7642
96.039
94.9721
96.4267
95.789
96.4055
96.3985
96.6209
96.79
96.9614
97.1502
97.332
97.5306
97.7164
97.9275
98.0991
98.3233
98.4425
98.6742
87.7284
88.1312
89.7321
88.888
90.3371
90.2013
90.8256
91.1696
91.5602
91.9662
92.3564
92.7611
93.1625
93.576
93.9757
94.403
94.7694
95.2227
95.4739
95.9795
75.2517
75.9246
78.1668
77.3473
79.1919
79.3525
80.2659
80.9542
81.6591
82.3942
83.1174
83.8516
84.5852
85.3293
86.0526
86.8098
87.4715
88.2686
88.7334
89.6663
59.0684
59.4209
62.4994
61.176
63.7874
63.7505
65.089
65.9094
66.8667
67.8383
68.8099
69.8014
70.7963
71.806
72.79
73.8131
74.7163
75.7901
76.4546
77.693
41.5633
40.8837
44.5673
42.6039
46.0965
45.5536
47.4896
48.3075
49.5698
50.763
51.9906
53.2433
54.4963
55.7594
56.979
58.2125
59.2942
60.5054
61.2417
62.5246
27.0383
24.7506
28.268
25.1224
28.8466
27.4346
29.4866
29.9661
31.3355
32.5912
34.0617
35.6498
37.343
39.1484
40.9843
42.9036
44.6834
46.491
47.5741
49.3154
28.6246
24.9312
27.9344
22.1639
23.7743
20.1487
19.6372
17.7123
16.7215
15.6682
15.0072
14.5925
14.4578
14.5958
14.8965
15.6439
16.7953
18.8117
20.7095
23.4201
17.4508
10.3669
18.546
11.5672
13.484
10.0981
8.76561
6.18636
3.92151
1.39028
-1.07864
-3.57161
-6.03655
-8.51206
-10.9439
-12.7015
-13.1931
-11.87
-10.6764
-8.19171
40.9447
17.6544
25.3976
13.7226
10.4255
3.21659
-2.29255
-8.08125
-13.1486
-17.6667
-21.4117
-24.3068
-26.2662
-27.2281
-27.1437
-25.9088
-23.4591
-20.8833
-19.1591
-16.6016
740.02
656.594
607.152
550.458
501.097
453.447
409.173
367.375
328.088
291.041
256.095
223.061
191.711
161.962
133.902
106.905
81.922
63.3687
40.4061
2.50846
740.39
656.963
607.522
550.826
501.464
453.813
409.539
367.739
328.451
291.402
256.454
223.419
192.067
162.318
134.259
107.264
82.2857
63.7322
40.7662
2.86467
41.3145
18.0211
25.7641
14.0871
10.7894
3.5792
-1.93061
-7.72017
-12.788
-17.3065
-21.0516
-23.9465
-25.9052
-26.8659
-26.78
-25.5432
-23.0917
-20.5149
-18.7963
-16.248
17.7624
10.6715
18.8468
11.8617
13.7735
10.3813
9.0427
6.4566
4.1845
1.64545
-0.831894
-3.33396
-5.80858
-8.29421
-10.7361
-12.5007
-12.9957
-11.6797
-10.4922
-8.01592
28.823
25.1243
28.1239
22.3472
23.952
20.3199
19.8015
17.8693
16.8708
15.8094
15.14
14.7168
14.5733
14.7027
14.9952
15.736
16.8853
18.9042
20.805
23.5162
27.2248
24.9374
28.4555
25.3096
29.0344
27.6225
29.6755
30.1554
31.5262
32.783
34.2553
35.8455
37.5412
39.3496
41.1889
43.1121
44.8955
46.7074
47.7917
49.5376
41.7752
41.0965
44.7808
42.8178
46.3122
45.7687
47.7069
48.5245
49.788
50.9818
52.2101
53.4635
54.7173
55.9811
57.2015
58.436
59.5181
60.7307
61.4669
62.7504
59.2826
59.6356
62.715
61.391
64.0048
63.9662
65.3066
66.1267
67.0849
68.0571
69.0295
70.022
71.018
72.0289
73.0143
74.0389
74.9433
76.019
76.6847
77.9236
75.4872
76.162
78.4065
77.5876
79.4353
79.5964
80.5121
81.2019
81.9087
82.6459
83.371
84.1074
84.8431
85.5895
86.315
87.0747
87.7385
88.5384
89.0047
89.9415
87.9968
88.4014
90.0054
89.1635
90.6152
90.4818
91.1079
91.4546
91.8474
92.2559
92.6485
93.0556
93.4593
93.8755
94.2776
94.7078
95.0765
95.5331
95.7862
96.2953
95.3541
95.0676
96.3463
95.2798
96.7363
96.1015
96.7178
96.7143
96.9375
97.109
97.282
97.4727
97.6561
97.8566
98.044
98.2572
98.4302
98.6569
98.7772
99.0113
98.6926
97.868
98.8228
97.8297
99.2167
98.2587
99.0088
98.7605
98.9733
99.0223
99.1161
99.2149
99.3055
99.4142
99.5056
99.6232
99.7038
99.8277
99.8819
99.9981
99.423
98.6004
99.3867
98.6344
99.7689
98.9061
99.6576
99.3909
99.6413
99.6762
99.7853
99.8778
99.9685
100.067
100.149
100.252
100.317
100.425
100.463
100.571
99.4952
98.8688
99.8525
99.1396
100.077
99.5796
100.163
100.068
100.325
100.415
100.57
100.689
100.821
100.935
101.053
101.165
101.258
101.38
101.434
101.579
100.722
100.297
101.416
100.641
101.45
101.242
101.626
101.664
101.873
101.979
102.138
102.241
102.39
102.476
102.618
102.7
102.819
102.921
102.993
103.144
102.782
102.466
103.543
102.767
103.423
103.273
103.513
103.551
103.69
103.749
103.877
103.919
104.06
104.076
104.229
104.239
104.38
104.42
104.51
104.625
105.283
104.895
105.865
105.053
105.586
105.338
105.487
105.43
105.504
105.47
105.554
105.499
105.619
105.53
105.685
105.583
105.738
105.674
105.771
105.803
105.583
105.2
106.12
105.363
105.926
105.631
105.836
105.726
105.836
105.757
105.863
105.753
105.901
105.738
105.933
105.742
105.94
105.79
105.917
105.887
108.891
108.211
108.999
108.062
108.495
108.014
108.105
107.822
107.814
107.564
107.562
107.273
107.332
106.976
107.104
106.709
106.855
106.505
106.583
106.353
103.883
103.753
104.574
104.156
104.882
104.55
104.912
104.571
104.682
104.326
104.314
103.88
103.886
103.366
103.447
102.897
103.028
102.557
102.66
102.389
122.963
120.815
120.648
118.458
117.597
115.394
114.08
112.457
111.292
109.77
108.851
107.621
107.097
106.036
105.877
104.952
105.021
104.301
104.385
103.992
)
;

boundaryField
{
    outletWall
    {
        type            fixedValue;
        value           uniform 0;
    }
    fineWalls
    {
        type            zeroGradient;
    }
    fineFrontAndBack
    {
        type            zeroGradient;
    }
    fineplugLeft
    {
        type            cyclicAMI;
        value           nonuniform List<scalar> 
20
(
91.2101
91.3286
91.9185
92.6002
92.7904
93.7596
93.9841
95.0139
95.4737
96.5892
97.3156
98.557
99.7866
106.079
101.673
102.283
102.222
103.804
102.887
102.269
)
;
    }
    fineplugRight
    {
        type            cyclicAMI;
        value           nonuniform List<scalar> 
20
(
91.5086
91.6273
92.2169
92.9048
93.0975
94.0701
94.2954
95.3265
95.7851
96.9026
97.6288
98.873
100.109
106.445
102.015
102.626
102.557
104.142
103.215
102.597
)
;
    }
    inletOutletLeft
    {
        type            cyclicAMI;
        value           nonuniform List<scalar> 
20
(
91.2101
91.3286
91.9185
92.6002
92.7904
93.7596
93.9841
95.0139
95.4737
96.5892
97.3156
98.557
99.7866
106.079
101.673
102.283
102.222
103.804
102.887
102.269
)
;
    }
    inletLeft
    {
        type            zeroGradient;
    }
    inletWallsLeft
    {
        type            zeroGradient;
    }
    inletFacesLeft
    {
        type            zeroGradient;
    }
    inletOutletRight
    {
        type            cyclicAMI;
        value           nonuniform List<scalar> 
20
(
91.5086
91.6273
92.2169
92.9048
93.0975
94.0701
94.2954
95.3265
95.7851
96.9026
97.6288
98.873
100.109
106.445
102.015
102.626
102.557
104.142
103.215
102.597
)
;
    }
    inletRight
    {
        type            zeroGradient;
    }
    inletWallsRight
    {
        type            zeroGradient;
    }
    inletFacesRight
    {
        type            zeroGradient;
    }
}


// ************************************************************************* //
