/*--------------------------------*- C++ -*----------------------------------*\
| =========                 |                                                 |
| \\      /  F ield         | OpenFOAM: The Open Source CFD Toolbox           |
|  \\    /   O peration     | Version:  4.1                                   |
|   \\  /    A nd           | Web:      www.OpenFOAM.org                      |
|    \\/     M anipulation  |                                                 |
\*---------------------------------------------------------------------------*/
FoamFile
{
    version     2.0;
    format      ascii;
    class       surfaceScalarField;
    location    "2";
    object      phi;
}
// * * * * * * * * * * * * * * * * * * * * * * * * * * * * * * * * * * * * * //

dimensions      [0 3 -1 0 0 0 0];

internalField   nonuniform List<scalar> 
2360
(
4841.55
5434.64
-593.092
5434.64
5434.64
6139.81
-705.175
6139.81
6139.81
6139.81
6779.31
-639.496
6779.31
6779.3
7295.45
-516.144
7295.45
7295.46
7355.1
-59.6515
7355.1
7355.08
8823.98
-1468.9
8823.95
8823.94
9763.66
10845.7
11822.9
12711.7
13596.1
14470.4
9206.89
6167.51
10140.6
11095.4
12070.1
13054.9
14051.8
15044.5
16050
17041.5
18053.2
19041.5
20069.2
21018.7
22156.5
4893.22
17263.3
4893.21
4893.21
4893.21
284.031
4609.18
284.031
284.031
284.031
-174.353
458.384
-174.353
-174.355
-369.01
194.656
-369.012
-369.01
-369.013
-4940.8
4571.79
-4940.8
-4940.8
-4940.81
-22187.8
17247
-21049.6
-20099.5
-19072.2
-18084.2
-17072.9
-16081.5
-15076.1
-14083.2
-13086.1
-12101.1
-11126.5
-10171.8
-9238.41
-14445.6
6110.82
-13571.7
-12687.3
-11798.9
-10821.5
-9738.95
-8798.61
-8798.62
-8798.63
-7367.13
-1431.5
-7367.14
-7367.13
-7333.61
-33.525
-7333.61
-7333.61
-6832.88
-500.723
-6832.88
-6832.88
-6204.59
-628.29
-6204.59
-6204.59
-6204.59
-5507.08
-697.508
-5507.08
-5507.08
-4915.43
-591.649
-531.026
-1092.91
-594.987
-1737.11
-681.549
-2127.74
-792.87
-2572.4
-931.233
-3027.05
-1103.45
-3531.36
-1320.06
-4098.77
-1598.01
-4758.01
-1956.07
-5537.82
-2386.67
-6509.37
-2789.59
-7874.37
-2909.57
-9652.56
-2226.66
-9690.77
-297.682
-1786.69
684.306
8365.11
1031.9
12423.2
1051.77
11931.6
1025.51
10557.9
7245.36
-742.313
-1051.54
-826.374
-1653.05
-942.767
-2011.35
-1091.7
-2423.46
-1277.04
-2841.71
-1509.42
-3298.99
-1808.36
-3799.83
-2209.01
-4357.36
-2759.18
-4987.66
-3482.49
-5786.06
-4290.87
-7065.99
-4887.39
-9056.03
-4419.09
-10159.1
-1422.66
-4783.12
509.538
6432.92
743.246
12189.5
808.047
11866.8
942.609
10423.3
7490.46
-876.443
-999.354
-974.775
-1554.72
-1110.95
-1875.17
-1283.82
-2250.6
-1498.58
-2626.95
-1769.76
-3027.81
-2128.73
-3440.86
-2635.54
-3850.55
-3378.25
-4244.95
-4433.14
-4731.17
-5761.66
-5737.48
-7042.84
-7774.85
-7119.54
-10082.4
-3733.61
-8169.05
-159.805
2859.11
402.8
11626.9
427.759
11841.8
717.637
10133.4
7579.8
-1028.63
-931.165
-1148.93
-1434.43
-1310.77
-1713.34
-1513.64
-2047.73
-1764.16
-2376.42
-2084.08
-2707.89
-2526.39
-2998.55
-3193.24
-3183.7
-4225.08
-3213.11
-5734.13
-3222.13
-7660.72
-3810.88
-9588.02
-5847.55
-10296.1
-9374.25
-7519.33
-10945.9
-2038.5
-2621.72
-4.45532
9592.83
-78.7363
11916.1
488.351
9566.34
7567.42
-1187.82
-843.658
-1334.09
-1288.16
-1524.51
-1522.92
-1759.97
-1812.27
-2049.18
-2087.21
-2425.99
-2331.08
-2976.58
-2447.96
-3852.75
-2307.53
-5209.51
-1856.34
-7070.64
-1360.99
-9174.85
-1706.67
-11015.6
-4006.79
-11872.6
-8517.28
-10312.4
-12506.1
-4760.52
-8173.55
-858.43
5690.74
-616.764
11674.4
-359.135
9308.71
7174.75
-1360.2
-732.976
-1537.6
-1110.76
-1760.77
-1299.75
-2033.37
-1539.67
-2367.5
-1753.08
-2812.6
-1885.98
-3487.99
-1772.56
-4562.76
-1232.76
-6081.87
-337.237
-7774.19
331.324
-9024.51
-456.346
-9532.13
-3499.18
-9873.45
-8175.96
-10253.2
-12126.3
-7970.32
-10456.5
-3016.94
737.359
-405.347
9062.82
792.606
8110.75
6535.85
-1549.75
-595.328
-1763.65
-896.862
-2024.4
-1039
-2340.37
-1223.7
-2726.64
-1366.81
-3236.52
-1376.11
-3969.63
-1039.45
-4974.6
-227.786
-6053.88
742.044
-6734.49
1011.93
-6457.46
-733.372
-5783.17
-4173.47
-6397.25
-7561.88
-9136.61
-9386.95
-11062.5
-8530.59
-7647.46
-2677.66
-3228.53
4643.89
-2848.72
7730.94
9797.95
-1757.93
-427.261
-2013.74
-641.051
-2317.22
-735.517
-2682.47
-858.449
-3119.18
-930.103
-3642.42
-852.875
-4228.56
-453.307
-4761.51
305.168
-5037.38
1017.91
-4736.6
711.149
-4032.94
-1437.03
-4211.49
-3994.92
-6449.13
-5324.23
-10733.6
-5102.44
-15099.6
-4164.61
-16258.9
-1518.41
-15153.6
3538.61
-15990.3
8567.62
11054.6
-1977.65
-227.362
-2278.65
-340.059
-2627.22
-386.948
-3039.27
-446.397
-3503.89
-465.482
-3977.9
-378.861
-4337.13
-94.0751
-4402.4
370.432
-4065.68
681.194
-3512.4
157.868
-3664.59
-1284.84
-5362.21
-2297.31
-8559.42
-2127.02
-12475.8
-1186.09
-15976.1
-664.319
-17529.8
35.3738
-16370.9
2379.63
-12670.7
4867.48
2955.71
-2167.77
0.0204857
-2507.84
0.00865108
-2894.76
-0.0213497
-3341.13
-0.0276691
-3806.54
-0.0762189
-4184.48
-0.914992
-4272.94
-5.61598
-3880.99
-21.5241
-3142.82
-56.9765
-2891.24
-93.7136
-4104.72
-71.3526
-6402.93
0.899289
-8610.6
80.6424
-9914.04
117.352
-10628
49.6023
-10539
-53.5752
-8108.81
-50.5702
-3204.69
-36.6405
-54.3238
-2167.73
227.397
-2507.79
340.064
-2894.68
386.877
-3340.98
446.267
-3806.41
465.359
-4185.82
378.487
-4282.36
90.9254
-3917.71
-386.167
-3238.83
-735.865
-3045.97
-286.567
-4246.04
1128.71
-6459.8
2214.66
-8562.02
2182.86
-9791.85
1347.19
-10513.4
771.186
-10478.4
-88.5951
-8077.94
-2451.05
-3282.94
-4831.64
-2878.88
-1977.61
427.289
-2278.6
641.052
-2627.15
735.425
-3039.06
858.182
-3503.21
929.506
-3976.42
851.7
-4336.68
451.187
-4414.01
-308.839
-4122.05
-1027.83
-3657.79
-750.825
-3876.96
1347.88
-5545.63
3883.34
-8626.75
5263.97
-12429.5
5149.93
-15891.9
4233.57
-17434.4
1453.9
-16272.6
-3612.85
-12618.5
-8485.75
-10888.2
-1757.88
595.351
-2013.7
896.868
-2317.2
1038.93
-2682.5
1223.48
-3119.32
1366.32
-3642.89
1375.27
-4230.22
1038.51
-4767.41
228.353
-5059.43
-735.807
-4808.9
-1001.36
-4184.68
723.663
-4419.22
4117.88
-6648.93
7493.68
-10874.4
9375.38
-15146.9
8506.08
-16208.4
2515.42
-15114.5
-4706.78
-16021.6
-7578.59
-9646.49
-1549.69
732.994
-1763.6
1110.78
-2024.41
1299.73
-2340.49
1539.56
-2726.98
1752.81
-3237.25
1885.54
-3971.38
1772.65
-4979.5
1236.47
-6067.26
351.954
-6771.61
-297.01
-6551.49
503.55
-5963.8
3530.19
-6651.73
8181.61
-9373.34
12097
-11129.3
10262
-7583.6
-1030.28
-3215.23
-9075.15
-2902.36
-7891.46
-6381.35
-1360.13
843.67
-1537.54
1288.19
-1760.76
1522.95
-2033.49
1812.29
-2367.9
2087.22
-2813.5
2331.14
-3489.47
2448.62
-4564.14
2311.14
-6082.09
1869.91
-7775.2
1396.1
-9043.75
1772.11
-9607.24
4093.67
-10016.2
8590.61
-10376.6
12457.4
-7930.87
7816.27
-2970.15
-5991
-426.812
-11618.5
819.26
-9137.53
-7030.99
-1187.75
931.171
-1334.02
1434.46
-1524.47
1713.41
-1760.05
2047.87
-2049.51
2376.69
-2426.79
2708.42
-2977.93
2999.75
-3853.84
3187.05
-5207.41
3223.48
-7061.14
3249.83
-9157.67
3868.63
-11000.4
5936.36
-11859
9449.29
-10254.3
10852.7
-4679.36
2241.32
-869.474
-9800.89
-644.12
-11843.8
-333.038
-9448.62
-7423.68
-1028.55
999.351
-1148.85
1554.76
-1310.71
1875.27
-1513.66
2250.81
-1764.36
2627.39
-2084.62
3028.68
-2527.44
3442.57
-3194.47
3854.07
-4224.33
4253.34
-5726.06
4751.55
-7637.37
5779.94
-9541.2
7840.19
-10209.9
10118
-7365.66
8008.43
-1967.25
-3157.09
-29.4636
-11738.7
-83.2067
-11790.1
504.252
-10036.1
-7435.58
-876.361
1051.53
-974.689
1653.08
-1110.88
2011.46
-1283.79
2423.72
-1498.66
2842.25
-1770.04
3300.07
-2129.33
3801.86
-2636.39
4361.13
-3378.07
4995.03
-4427.69
5801.17
-5742.34
7094.6
-6997.91
9095.76
-7036.24
10156.3
-3613.19
4585.39
-126.908
-6643.37
390.521
-12256.1
430.568
-11830.1
729.123
-10334.6
-7345.95
-742.232
1092.89
-826.283
1737.14
-942.68
2127.86
-1091.63
2572.67
-1277.02
3027.64
-1509.48
3532.52
-1808.54
4100.93
-2209.24
4761.82
-2758.69
5544.48
-3478.42
6520.9
-4276.56
7892.74
-4852.29
9671.48
-4354.46
9658.48
-1345.44
1576.37
525.611
-8514.42
741.54
-12472
813.149
-11901.8
950.038
-10471.5
-7101.09
-530.952
-594.899
-681.452
-792.766
-931.123
-1103.33
-1319.89
-1597.68
-1955.14
-2383.7
-2781.08
-2888.67
-2183.13
-233.29
705.621
1037.72
1056.38
1027.89
152.118
-1091.88
269.669
-1199.63
349.758
-1057.33
403.627
-942.631
467.402
-948.27
530.631
-937.526
566.159
-939.509
563.416
-930.931
541.317
-932.72
501.309
-934.666
450.75
-934.255
397.154
-943.246
342.025
-937.618
290.398
-953.802
238.515
-939.7
191.149
-964.279
142.977
-940.204
98.3225
-982.994
46.6575
-897.803
-1091.22
61.7884
-1153.68
76.9342
-1214.8
93.1478
-1073.56
98.3921
-947.894
91.8327
-941.728
82.9186
-928.63
84.2041
-940.811
91.3593
-938.104
98.6784
-940.054
104.818
-940.822
108.765
-938.215
109.398
-943.894
107.983
-936.214
102.659
-948.49
96.8194
-933.871
86.4224
-953.892
77.6366
-931.425
62.8168
-968.181
57.3378
-892.33
-1033.88
40.0722
-1193.77
108.262
-1283
167.693
-1133
196.307
-976.524
194.374
-939.81
188.545
-922.816
176.406
-928.687
165.969
-927.682
154.383
-928.483
142.936
-929.39
131.908
-927.2
119.792
-931.791
109.492
-925.926
96.6825
-935.693
87.2566
-924.457
73.6971
-940.343
65.3441
-923.079
50.5587
-953.403
49.3085
-891.088
-984.571
29.6273
-1223.4
115.92
-1369.3
185.409
-1202.5
216.041
-1007.16
210.885
-934.66
197.082
-909.021
183.129
-914.741
172.007
-916.568
161.003
-917.486
149.855
-918.249
139.092
-916.444
127.147
-919.852
116.716
-915.502
103.8
-922.784
94.0075
-914.671
80.0903
-926.432
71.2071
-914.202
55.6939
-937.895
55.7093
-891.108
-928.862
29.7969
-1253.21
140.756
-1480.27
224.053
-1285.81
257.026
-1040.15
251.249
-928.896
233.778
-891.565
216.412
-897.389
201.654
-901.825
187.412
-903.257
172.971
-903.821
159.102
-902.587
144.224
-904.987
131.012
-902.301
115.597
-907.38
103.382
-902.465
87.3758
-910.435
76.3608
-903.194
59.023
-920.564
57.3909
-889.483
-871.471
42.5295
-1295.74
158.327
-1596.07
223.631
-1351.11
236.633
-1053.15
232.021
-924.285
219.546
-879.092
209.364
-887.209
198.66
-891.123
187.848
-892.446
175.791
-891.766
163.701
-890.498
150.224
-891.513
137.708
-889.786
123.012
-892.687
110.623
-890.077
94.7065
-894.52
82.5145
-891.003
64.3499
-902.401
58.667
-883.802
-812.804
69.6311
-1365.37
153.537
-1679.98
160.265
-1357.85
141.848
-1034.74
150.04
-932.483
155.05
-884.109
161.402
-893.565
161.215
-890.943
158.941
-890.177
153.762
-886.593
147.34
-884.081
138.809
-882.987
130.179
-881.16
119.224
-881.736
109.303
-880.159
96.0202
-881.241
84.4445
-879.429
67.0995
-885.058
56.1966
-872.901
-756.608
100.386
-1465.76
106.222
-1685.81
47.4761
-1299.1
29.68
-1016.94
66.1962
-968.993
95.65
-913.556
119.261
-917.171
131.233
-902.908
138.177
-897.116
140.46
-888.872
139.782
-883.399
136.042
-879.242
130.914
-876.028
123.199
-874.017
115.058
-872.016
103.618
-869.797
91.3759
-867.186
73.1402
-866.821
53.6367
-853.396
-702.971
106.665
-1572.43
24.6074
-1603.76
-26.9653
-1247.54
5.02388
-1048.94
63.5786
-1027.56
111.412
-961.404
143.038
-948.808
162.812
-922.696
174.2
-908.513
179.573
-894.257
180.046
-883.879
176.394
-875.601
169.932
-869.571
160.501
-864.595
149.125
-860.644
134.353
-855.031
116.144
-848.978
90.8943
-841.573
57.4666
-819.97
-645.505
62.7158
-1635.14
-32.4273
-1508.61
2.20375
-1282.16
85.887
-1132.62
150.655
-1092.32
207.234
-1017.98
241.507
-983.077
265.117
-946.302
277.405
-920.798
281.963
-898.811
279.508
-881.42
271.357
-867.446
258.601
-856.811
241.869
-847.859
221.463
-840.234
196.829
-830.394
166.233
-818.378
126.177
-801.513
73.5268
-767.315
-571.978
-10.5978
-1624.54
-3.00998
-1516.2
106.162
-1391.34
211.307
-1237.77
281.304
-1162.32
342.535
-1079.21
382.386
-1022.93
410.047
-973.964
424.278
-935.028
428.006
-902.538
422.192
-875.605
408.222
-853.477
387.173
-835.759
360.022
-820.707
326.897
-807.106
287.453
-790.948
239.465
-770.387
178.422
-740.466
102.32
-691.208
-469.657
-36.9527
-1587.58
85.6374
-1638.78
216.026
-1521.71
322.228
-1343.96
403.208
-1243.29
471.587
-1147.58
522.752
-1074.08
559.018
-1010.22
579.907
-955.904
586.907
-909.525
581.117
-869.802
563.759
-836.106
535.849
-807.837
498.334
-783.181
451.41
-760.17
394.616
-734.142
326.166
-701.928
240.991
-655.282
138.323
-588.526
-331.334
9.84642
-1597.42
158.047
-1786.98
277.204
-1640.86
373.238
-1439.99
465.114
-1335.16
543.347
-1225.81
609.403
-1140.13
659.525
-1060.33
693.249
-989.623
710.47
-926.742
711.606
-870.933
697.254
-821.749
667.951
-778.528
624.179
-739.405
566.128
-702.112
493.483
-661.492
405.693
-614.131
298.838
-548.42
169.939
-459.615
-161.395
86.6996
-1684.11
185.878
-1886.14
270.936
-1725.91
347.564
-1516.6
438.99
-1426.57
518.31
-1305.11
592.47
-1214.28
652.874
-1120.73
699.553
-1036.29
730.257
-957.434
743.934
-884.601
739.633
-817.438
716.612
-755.497
674.354
-697.138
612.901
-640.649
532.634
-581.216
434.675
-516.166
316.873
-430.611
169.416
-312.14
8.02149
145.084
-1829.19
167.398
-1908.45
213.214
-1771.72
266.081
-1569.46
338.597
-1499.08
401.153
-1367.66
465.242
-1278.36
520.512
-1175.99
568.654
-1084.42
605.515
-994.286
629.073
-908.151
636.659
-825.014
626.306
-745.137
596.523
-667.346
546.637
-590.754
475.875
-510.446
384.402
-424.686
271.523
-317.726
127.835
-168.435
135.857
141.909
-1971.08
110.131
-1876.66
139.325
-1800.9
178.894
-1609.02
228.587
-1548.76
275.397
-1414.46
325.208
-1328.16
372.684
-1223.45
419.208
-1130.94
461.193
-1036.26
497.23
-944.18
524.997
-852.769
543.322
-763.455
550.037
-674.052
538.389
-579.1
494.407
-466.456
406.98
-337.254
282.967
-193.705
135.812
-21.2679
271.669
53.5561
-2024.64
0.938665
-1824.04
7.08006
-1807.04
31.2726
-1633.21
56.6754
-1574.16
97.1949
-1454.97
142.321
-1373.28
196.999
-1278.12
258.519
-1192.45
326.762
-1104.5
401.468
-1018.88
483.361
-934.656
573.638
-853.726
667.444
-767.854
739.849
-651.499
740.646
-467.25
623.485
-220.086
367.834
61.9562
157.257
189.32
428.926
-138.929
-1885.7
-301.081
-1661.88
-420.585
-1687.53
-494.664
-1559.13
-558.641
-1510.18
-587.4
-1426.21
-600.164
-1360.51
-589.092
-1289.19
-559.687
-1221.85
-510.482
-1153.7
-442.208
-1087.15
-353.599
-1023.26
-245.073
-962.247
-123.409
-889.514
-11.6416
-763.26
52.5339
-531.419
44.3568
-211.892
19.8135
86.5184
-44.5676
253.711
384.359
-223.1
-1662.6
-480.732
-1404.25
-754.731
-1413.53
-984.237
-1329.62
-1203.31
-1291.1
-1388.09
-1241.43
-1548.81
-1199.79
-1680.26
-1157.75
-1784.98
-1117.13
-1862.26
-1076.42
-1913.61
-1035.79
-1941.14
-995.732
-1947.59
-955.802
-1928.41
-908.693
-1858.18
-833.483
-1685.5
-704.102
-1373.92
-523.468
-945.523
-341.875
-489.004
-202.804
-104.645
-687.602
-1116.85
-1555.38
-1910
-2226.1
-2492.53
-2717.32
-2900.07
-3042.19
-3143.61
-3204.4
-3225.13
-3205.94
-3139.63
-2998.11
-2727.21
-2275.68
-1642.55
-870.355
-687.607
1662.61
-1116.87
1404.26
-1555.41
1413.54
-1910.05
1329.64
-2226.18
1291.13
-2492.65
1241.47
-2717.48
1199.83
-2900.28
1157.8
-3042.46
1117.18
-3143.94
1076.48
-3204.78
1035.85
-3225.57
995.785
-3206.41
955.843
-3140.07
908.668
-2998.38
833.308
-2727.16
703.783
-2275.37
523.212
-1642.23
341.862
-870.193
202.962
104.807
-223.19
1885.8
-480.95
1662.02
-755.071
1687.67
-984.721
1559.29
-1203.95
1510.36
-1388.9
1426.42
-1549.81
1360.74
-1681.44
1289.44
-1786.38
1222.11
-1863.87
1153.97
-1915.47
1087.44
-1943.24
1023.56
-1949.92
962.522
-1930.87
889.623
-1860.56
763
-1687.42
530.641
-1375.04
210.834
-945.794
-87.3792
-488.993
-253.834
-384.185
-139.057
2024.86
-301.307
1824.27
-420.934
1807.29
-495.141
1633.5
-559.244
1574.47
-588.142
1455.32
-601.048
1373.65
-590.126
1278.51
-560.873
1192.86
-511.826
1104.93
-443.708
1019.32
-355.252
935.108
-246.889
854.163
-125.447
768.184
-13.9931
651.55
49.9444
466.709
42.0728
218.718
18.281
-63.5726
-45.5563
-189.989
-429.742
53.4416
1971.42
0.937145
1876.78
7.10939
1801.12
31.3342
1609.28
56.7645
1549.04
97.3249
1414.76
142.49
1328.48
197.215
1223.79
258.784
1131.3
327.091
1036.62
401.88
944.537
483.889
853.103
574.304
763.75
668.213
674.278
740.571
579.194
740.98
466.301
622.932
336.769
366.338
193.024
156.408
19.9456
-273.334
141.733
1829.69
110.05
1908.46
139.32
1771.86
178.913
1569.69
228.567
1499.39
275.35
1367.98
325.116
1278.72
372.543
1176.37
419.02
1084.83
460.986
994.662
497.052
908.474
524.892
825.268
543.326
745.318
550.16
667.447
538.602
590.755
494.603
510.304
407.042
424.332
282.973
317.097
135.882
167.042
-137.452
144.95
1684.74
167.201
1886.21
213.012
1726.05
265.814
1516.89
338.196
1427.01
400.635
1305.55
464.6
1214.76
519.731
1121.24
567.749
1036.81
604.551
957.864
628.138
884.889
635.818
817.591
625.588
755.55
595.93
697.108
546.148
640.539
475.448
581.006
383.972
515.809
271.037
430.033
127.271
310.812
-10.1808
86.7184
1598.03
185.765
1787.17
270.719
1641.1
347.247
1440.37
438.625
1335.63
517.946
1226.23
592.106
1140.6
652.469
1060.88
699.115
990.169
729.845
927.138
743.62
871.117
739.457
821.757
716.573
778.435
674.427
739.257
613.037
701.931
532.774
661.272
434.746
613.839
316.761
548.019
168.919
458.657
158.739
9.98352
1588.05
158.06
1639.1
277.03
1522.13
373.008
1344.39
465.035
1243.61
543.47
1147.8
609.692
1074.38
659.918
1010.66
693.734
956.355
711.066
909.809
712.323
869.862
698.084
835.998
668.868
807.654
625.153
782.974
567.107
759.978
494.407
733.973
406.478
701.771
299.35
655.149
169.904
588.105
328.643
-36.7437
1624.8
85.7643
1516.6
215.89
1392.01
322.133
1238.16
403.427
1162.32
472.082
1079.15
523.46
1023.01
559.876
974.253
580.906
935.331
588.029
902.694
582.322
875.575
565.008
853.319
537.107
835.56
499.582
820.506
452.61
806.955
395.728
790.86
327.115
770.386
241.619
740.648
138.336
691.393
466.979
-10.4232
1635.22
-2.68249
1508.86
106.262
1283.07
211.495
1132.93
281.845
1091.97
343.265
1017.73
383.281
982.998
411.06
946.475
425.419
920.974
429.231
898.882
423.448
881.36
409.466
867.302
388.376
856.65
361.179
847.704
327.989
840.147
288.47
830.381
240.349
818.509
179.021
801.977
102.436
767.98
569.416
62.7484
1572.48
-31.9267
1603.54
2.81486
1248.33
86.5445
1049.2
151.525
1027
208.119
961.143
242.457
948.663
266.116
922.819
278.469
908.623
283.04
894.314
280.551
883.851
272.335
875.521
259.501
869.486
242.695
864.512
222.215
860.629
197.522
855.076
166.836
849.196
126.595
842.219
73.7858
820.791
643.201
106.588
1465.88
25.0634
1685.06
-25.8498
1299.24
6.2832
1017.06
64.7751
968.496
112.473
913.435
144.024
917.105
163.772
903.062
175.134
897.255
180.441
888.998
180.811
883.476
177.04
879.284
170.458
876.063
160.919
874.046
149.45
872.094
134.619
869.903
116.355
867.459
91.0461
867.526
57.8281
854.006
701.03
100.264
1365.62
106.436
1678.88
48.5377
1357.13
31.1432
1034.45
67.4651
932.173
96.7331
884.166
120.162
893.675
132.051
891.171
138.9
890.406
141.067
886.829
140.247
884.295
136.355
883.175
131.081
881.335
123.233
881.892
114.99
880.336
103.486
881.406
91.2226
879.72
73.0562
885.691
53.9831
873.078
755.013
69.4766
1296.13
153.514
1594.84
160.759
1349.88
142.77
1052.43
150.882
924.053
155.79
879.25
161.997
887.46
161.744
891.414
159.388
892.754
154.118
892.092
147.581
890.825
138.926
891.823
130.171
890.084
119.104
892.953
109.092
890.343
95.7565
894.736
84.1835
891.289
66.9888
902.882
56.4805
883.582
811.493
42.3476
1253.78
158.195
1478.99
223.613
1284.46
236.763
1039.27
232.143
928.668
219.682
891.704
209.49
897.646
198.801
902.098
187.988
903.562
175.92
904.153
163.8
902.94
150.282
905.335
137.712
902.649
122.968
907.693
110.53
902.776
94.5949
910.667
82.4206
903.461
64.423
920.877
58.9084
889.094
870.401
29.6274
1224.15
140.598
1368.01
223.798
1201.25
256.686
1006.38
250.853
934.496
233.452
909.098
216.164
914.927
201.494
916.761
187.328
917.722
172.962
918.512
159.157
916.74
144.331
920.154
131.156
915.82
115.771
923.072
103.57
914.973
87.5832
926.65
76.5952
914.447
59.3856
938.084
57.6552
890.822
928.057
29.5475
1194.6
115.692
1281.86
184.952
1131.99
215.419
975.909
210.18
939.73
196.468
922.806
182.627
928.764
171.642
927.742
160.764
928.595
149.746
929.527
139.106
927.377
127.27
931.987
116.941
926.144
104.107
935.902
94.3884
924.687
80.5185
940.516
71.6838
923.277
56.2539
953.51
56.008
891.064
984.065
40.1508
1154.44
107.951
1214.06
167.111
1072.83
195.591
947.425
193.544
941.773
187.794
928.553
175.693
940.862
165.354
938.077
153.848
940.098
142.517
940.854
131.625
938.266
119.659
943.95
109.531
936.27
96.8709
948.559
87.6035
933.952
74.143
953.975
65.8961
931.523
51.1996
968.205
49.6512
892.611
1033.72
61.9873
1092.45
76.4433
1199.6
92.2343
1057.03
97.3944
942.261
90.8475
948.317
82.0067
937.39
83.4015
939.464
90.7114
930.763
98.2059
932.6
104.561
934.497
108.724
934.101
109.544
943.128
108.28
937.532
103.053
953.785
97.3281
939.676
86.9929
964.309
78.3366
940.179
63.6486
982.894
57.7457
898.515
1091.46
152.102
269.111
348.785
402.56
466.533
529.971
565.809
563.199
541.127
500.967
450.106
396.165
340.804
289.172
237.509
190.48
142.665
98.3547
46.7529
)
;

boundaryField
{
    outletWall
    {
        type            calculated;
        value           nonuniform List<scalar> 
60
(
-4915.43
-6811.5
-10531.6
-11951.4
-12770.8
-9347.1
-142.294
9007.87
9772.54
8277.29
6939.98
5895.87
5035.96
4315.38
3703.58
3165.42
2683.72
2214.3
1801.07
1122.64
501.231
700.871
824.182
960.373
1100.25
1249.46
1412.05
1589.82
1777.72
1940.35
1940.39
1777.76
1589.86
1412.1
1249.52
1100.32
960.447
824.255
700.942
501.296
-4841.55
-6666.29
-10443
-11920.4
-12804.1
-9453.33
-373.471
8952.93
9779.08
8290.12
6949.46
5901.93
5039.61
4317.49
3704.73
3166
2683.99
2214.41
1801.08
1122.61
)
;
    }
    fineWalls
    {
        type            calculated;
        value           uniform 0;
    }
    fineFrontAndBack
    {
        type            calculated;
        value           nonuniform List<scalar> 
960
(
-4.28631e-15
-8.76326e-14
3.17303e-14
2.00875e-14
-3.19113e-14
-8.20922e-15
-4.92713e-14
1.74743e-13
-1.3226e-12
-5.99268e-13
-6.87102e-13
5.11829e-12
1.72032e-12
1.04437e-12
1.11147e-11
2.71144e-12
2.22039e-12
1.6634e-11
4.31379e-12
5.73019e-12
1.37242e-12
1.11004e-12
1.6146e-12
2.06953e-12
2.15643e-12
4.63137e-13
-4.24951e-11
-5.21629e-12
-6.63404e-12
-7.71519e-12
-8.46903e-12
-9.20469e-12
-1.0034e-11
-1.08732e-11
-1.17349e-11
-1.22863e-11
-1.27384e-11
-1.28235e-11
-1.28899e-11
-1.26922e-11
-3.23022e-10
-4.16763e-11
-3.30704e-11
-1.70168e-11
5.11503e-11
1.45309e-11
3.68782e-12
-8.3702e-12
-4.14316e-11
-5.32164e-11
-3.81889e-11
-2.82627e-10
-4.77661e-11
-3.931e-11
-2.27834e-11
3.70238e-11
3.14683e-11
3.82933e-11
4.42799e-11
3.25392e-10
1.2641e-11
1.28572e-11
1.28273e-11
1.27835e-11
1.24123e-11
1.18938e-11
1.11003e-11
1.02474e-11
9.44602e-12
8.80829e-12
8.20863e-12
7.43753e-12
6.54861e-12
1.05744e-10
2.87288e-12
2.08745e-12
2.46823e-12
2.91446e-12
3.10353e-12
2.47355e-12
1.13292e-11
1.08754e-11
4.22998e-11
6.6069e-12
3.86344e-12
6.78472e-12
-2.57201e-13
2.6328e-13
5.40563e-12
8.602e-13
1.57223e-12
6.82599e-12
6.72228e-14
-1.66946e-14
-4.7041e-14
-5.94568e-13
-1.7398e-13
-3.22071e-13
-1.94969e-12
-6.18175e-14
3.09876e-10
7.75381e-10
1.05534e-09
8.89199e-10
3.67197e-10
1.50699e-10
6.43791e-10
1.35389e-09
1.60537e-09
1.3952e-09
1.07373e-09
7.61767e-10
3.98271e-10
4.19913e-11
-3.23304e-11
-2.3557e-11
-3.01062e-12
-4.21118e-13
-8.12734e-13
-3.96966e-10
-1.27989e-10
2.58153e-10
6.0792e-11
-6.78778e-10
-1.07611e-09
-4.35929e-10
7.2599e-10
1.46797e-09
1.55962e-09
1.28155e-09
8.22504e-10
3.00979e-10
-5.5224e-11
-6.41156e-11
-2.54071e-11
-2.79966e-12
-2.44461e-13
-7.30292e-13
-2.55576e-09
-2.91704e-09
-2.22186e-09
-2.21069e-09
-3.1553e-09
-4.05405e-09
-3.5575e-09
-1.75973e-09
6.38613e-11
9.83519e-10
1.00402e-09
5.62615e-10
9.36194e-11
-1.20142e-10
-8.76589e-11
-3.18192e-11
-4.07984e-12
-4.99969e-14
-5.56702e-13
-7.0931e-09
-8.09851e-09
-6.50574e-09
-6.26317e-09
-8.02383e-09
-1.00609e-08
-9.53263e-09
-6.03755e-09
-1.99815e-09
2.71142e-10
6.63328e-10
2.79535e-10
-7.3481e-11
-1.50104e-10
-5.97502e-11
-2.79824e-11
-8.73692e-12
-1.62656e-12
-3.91518e-12
-1.44608e-08
-1.53661e-08
-1.23873e-08
-1.26206e-08
-1.63768e-08
-1.99247e-08
-1.82944e-08
-1.13225e-08
-3.93141e-09
-1.9881e-10
4.01758e-10
6.89497e-11
-1.4806e-10
-1.31509e-10
-3.76402e-11
-2.41014e-12
-8.33461e-12
4.4828e-12
1.60692e-11
-2.36882e-08
-2.30767e-08
-1.92923e-08
-2.17916e-08
-2.86885e-08
-3.29732e-08
-2.80959e-08
-1.58221e-08
-4.76968e-09
-1.60447e-10
3.57244e-10
1.03379e-10
8.07475e-11
1.31525e-10
6.10953e-11
3.15082e-12
-1.23152e-11
-1.8609e-11
-5.80951e-11
-3.20711e-08
-2.91663e-08
-2.703e-08
-3.3876e-08
-4.36338e-08
-4.63783e-08
-3.61949e-08
-1.82846e-08
-4.72509e-09
6.29074e-11
6.78484e-10
7.78542e-10
1.0219e-09
7.70488e-10
2.36524e-10
5.9574e-11
3.14991e-11
3.47316e-11
1.16055e-10
-3.61388e-08
-3.27112e-08
-3.56605e-08
-4.7142e-08
-5.71329e-08
-5.58589e-08
-4.07701e-08
-1.97644e-08
-5.51861e-09
-1.2702e-11
1.53221e-09
2.22856e-09
2.26631e-09
1.15354e-09
2.63532e-10
2.23926e-10
3.42991e-10
4.33567e-10
5.53535e-10
-3.34969e-08
-3.42049e-08
-4.35697e-08
-5.6514e-08
-6.29437e-08
-5.7433e-08
-4.18258e-08
-2.36285e-08
-1.0304e-08
-2.24228e-09
2.03103e-09
3.3952e-09
2.39521e-09
6.22281e-10
2.44944e-11
3.11013e-10
4.49999e-10
4.05627e-10
3.07929e-10
-2.31518e-08
-3.24733e-08
-4.45382e-08
-5.37098e-08
-5.47864e-08
-4.7742e-08
-3.59362e-08
-2.29619e-08
-1.11743e-08
-1.84424e-09
3.08312e-09
3.25634e-09
1.28876e-09
-3.76791e-10
-5.7052e-10
-8.38524e-12
2.76434e-10
1.55463e-10
-1.72407e-10
-1.01076e-09
-1.83601e-08
-2.57563e-08
-2.90133e-08
-2.75259e-08
-2.17853e-08
-1.34494e-08
-5.77008e-09
-1.25078e-09
6.40322e-10
1.40999e-09
1.58827e-09
8.7834e-10
-3.78611e-11
-3.44208e-10
-2.63231e-10
-2.44101e-10
-2.64096e-10
-1.46667e-10
1.75725e-08
-3.27152e-09
-1.31389e-08
-1.56402e-08
-1.35819e-08
-9.55719e-09
-4.84484e-09
-9.52405e-10
5.8683e-10
5.5189e-10
3.56509e-10
4.81328e-10
4.26749e-10
7.90934e-11
-1.91567e-10
-3.06787e-10
-3.89309e-10
-4.24282e-10
-2.93384e-10
2.76417e-08
9.628e-09
-3.42407e-09
-7.69721e-09
-6.14947e-09
-3.05333e-09
-7.41724e-10
5.21333e-10
7.15552e-10
3.23438e-10
-2.4375e-11
-7.3657e-11
-3.98002e-13
-1.73924e-11
-1.43729e-10
-2.78897e-10
-3.43466e-10
-4.17564e-10
-5.28168e-10
2.82191e-08
1.68666e-08
3.58162e-09
-2.51227e-09
-2.25191e-09
2.64935e-10
1.53549e-09
1.36539e-09
7.28833e-10
2.13601e-10
-5.68738e-11
-1.44047e-10
-1.47234e-10
-1.05927e-10
-9.73583e-11
-9.80945e-11
-3.53141e-11
-4.01668e-11
-8.13395e-11
2.2173e-08
1.73027e-08
6.91438e-09
6.62022e-10
-2.60627e-10
1.59062e-09
2.56766e-09
1.9717e-09
9.52251e-10
2.86382e-10
1.94575e-11
-4.97019e-11
-6.84777e-11
-5.90514e-11
-3.09318e-11
-9.6179e-13
8.97144e-12
1.83271e-11
4.31282e-11
1.3931e-08
1.29325e-08
6.57687e-09
1.86026e-09
6.11789e-10
1.79634e-09
2.62706e-09
2.1394e-09
1.15195e-09
4.30626e-10
1.0467e-10
1.62358e-11
7.90787e-12
1.44802e-11
1.73685e-11
5.08627e-12
-1.57624e-12
-5.43917e-12
-1.16354e-11
6.9195e-09
7.1507e-09
4.04441e-09
1.4485e-09
7.14841e-10
1.49717e-09
2.11878e-09
1.8482e-09
1.12953e-09
5.08827e-10
1.71622e-10
5.30457e-11
3.13196e-11
3.59898e-11
2.35097e-11
9.89586e-13
1.24558e-12
-2.92521e-14
1.49057e-12
2.49659e-09
2.56093e-09
1.25972e-09
3.14085e-10
3.55805e-10
1.04001e-09
1.45029e-09
1.30793e-09
8.90107e-10
4.6617e-10
1.90133e-10
7.14646e-11
3.27537e-11
2.62847e-11
8.26845e-12
2.1358e-12
4.42409e-14
-7.36088e-13
-7.12522e-13
3.73053e-10
-9.33304e-12
-6.20357e-10
-7.25505e-10
-1.35121e-10
6.05235e-10
8.88702e-10
7.80189e-10
5.70909e-10
3.40064e-10
1.5797e-10
6.94843e-11
2.9045e-11
1.52908e-11
3.02658e-12
1.82649e-12
1.54822e-13
-6.52598e-13
-3.63471e-13
-3.19145e-10
-8.17979e-10
-1.15568e-09
-1.0341e-09
-4.16588e-10
1.92225e-10
3.72089e-10
2.82595e-10
2.0254e-10
1.34431e-10
6.67417e-11
3.32035e-11
1.32366e-11
5.50545e-12
2.18549e-12
1.74748e-12
1.51164e-13
-7.07422e-13
-4.10848e-13
4.28631e-15
8.76326e-14
-3.17303e-14
-2.00875e-14
3.19113e-14
8.20922e-15
4.92713e-14
-1.74743e-13
1.3226e-12
5.99268e-13
6.87102e-13
-5.11829e-12
-1.72032e-12
-1.04437e-12
-1.11147e-11
-2.71144e-12
-2.22039e-12
-1.6634e-11
-4.31379e-12
-5.73019e-12
-1.37242e-12
-1.11004e-12
-1.6146e-12
-2.06953e-12
-2.15643e-12
-4.63137e-13
4.24951e-11
5.21629e-12
6.63404e-12
7.71519e-12
8.46903e-12
9.20469e-12
1.0034e-11
1.08732e-11
1.17349e-11
1.22863e-11
1.27384e-11
1.28235e-11
1.28899e-11
1.26922e-11
3.23022e-10
4.16763e-11
3.30704e-11
1.70168e-11
-5.11503e-11
-1.45309e-11
-3.68782e-12
8.3702e-12
4.14316e-11
5.32164e-11
3.81889e-11
2.82627e-10
4.77661e-11
3.931e-11
2.27834e-11
-3.70238e-11
-3.14683e-11
-3.82933e-11
-4.42799e-11
-3.25392e-10
-1.2641e-11
-1.28572e-11
-1.28273e-11
-1.27835e-11
-1.24123e-11
-1.18938e-11
-1.11003e-11
-1.02474e-11
-9.44602e-12
-8.80829e-12
-8.20863e-12
-7.43753e-12
-6.54861e-12
-1.05744e-10
-2.87288e-12
-2.08745e-12
-2.46823e-12
-2.91446e-12
-3.10353e-12
-2.47355e-12
-1.13292e-11
-1.08754e-11
-4.22998e-11
-6.6069e-12
-3.86344e-12
-6.78472e-12
2.57201e-13
-2.6328e-13
-5.40563e-12
-8.602e-13
-1.57223e-12
-6.82599e-12
-6.72228e-14
1.66946e-14
4.7041e-14
5.94568e-13
1.7398e-13
3.22071e-13
1.94969e-12
6.18175e-14
-3.09876e-10
-7.75381e-10
-1.05534e-09
-8.89199e-10
-3.67197e-10
-1.50699e-10
-6.43791e-10
-1.35389e-09
-1.60537e-09
-1.3952e-09
-1.07373e-09
-7.61767e-10
-3.98271e-10
-4.19913e-11
3.23304e-11
2.3557e-11
3.01062e-12
4.21118e-13
8.12734e-13
3.96966e-10
1.27989e-10
-2.58153e-10
-6.0792e-11
6.78778e-10
1.07611e-09
4.35929e-10
-7.2599e-10
-1.46797e-09
-1.55962e-09
-1.28155e-09
-8.22504e-10
-3.00979e-10
5.5224e-11
6.41156e-11
2.54071e-11
2.79966e-12
2.44461e-13
7.30292e-13
2.55576e-09
2.91704e-09
2.22186e-09
2.21069e-09
3.1553e-09
4.05405e-09
3.5575e-09
1.75973e-09
-6.38613e-11
-9.83519e-10
-1.00402e-09
-5.62615e-10
-9.36194e-11
1.20142e-10
8.76589e-11
3.18192e-11
4.07984e-12
4.99969e-14
5.56702e-13
7.0931e-09
8.09851e-09
6.50574e-09
6.26317e-09
8.02383e-09
1.00609e-08
9.53263e-09
6.03755e-09
1.99815e-09
-2.71142e-10
-6.63328e-10
-2.79535e-10
7.3481e-11
1.50104e-10
5.97502e-11
2.79824e-11
8.73692e-12
1.62656e-12
3.91518e-12
1.44608e-08
1.53661e-08
1.23873e-08
1.26206e-08
1.63768e-08
1.99247e-08
1.82944e-08
1.13225e-08
3.93141e-09
1.9881e-10
-4.01758e-10
-6.89497e-11
1.4806e-10
1.31509e-10
3.76402e-11
2.41014e-12
8.33461e-12
-4.4828e-12
-1.60692e-11
2.36882e-08
2.30767e-08
1.92923e-08
2.17916e-08
2.86885e-08
3.29732e-08
2.80959e-08
1.58221e-08
4.76968e-09
1.60447e-10
-3.57244e-10
-1.03379e-10
-8.07475e-11
-1.31525e-10
-6.10953e-11
-3.15082e-12
1.23152e-11
1.8609e-11
5.80951e-11
3.20711e-08