/*--------------------------------*- C++ -*----------------------------------*\
| =========                 |                                                 |
| \\      /  F ield         | OpenFOAM: The Open Source CFD Toolbox           |
|  \\    /   O peration     | Version:  4.1                                   |
|   \\  /    A nd           | Web:      www.OpenFOAM.org                      |
|    \\/     M anipulation  |                                                 |
\*---------------------------------------------------------------------------*/
FoamFile
{
    version     2.0;
    format      ascii;
    class       volVectorField;
    location    "2";
    object      U;
}
// * * * * * * * * * * * * * * * * * * * * * * * * * * * * * * * * * * * * * //

dimensions      [0 1 -1 0 0 0 0];

internalField   nonuniform List<vector> 
1280
(
(-3.0976e-18 1.5905 0.0337698)
(-1.4894e-17 1.89592 -0.159699)
(3.87476e-17 1.71657 -0.16558)
(1.45167e-17 1.82118 -0.1967)
(-5.42364e-18 2.21607 -0.401924)
(-5.93259e-18 1.8708 -0.336242)
(-3.56071e-17 2.11861 -0.395147)
(1.5446e-16 2.04618 -0.428058)
(-4.81837e-16 2.49882 -0.503563)
(-4.33075e-16 2.13751 -0.328155)
(-4.96551e-16 2.30775 -0.360113)
(1.49304e-15 2.71326 -0.439196)
(1.29116e-15 2.2714 -0.382034)
(8.02676e-16 2.48869 -0.505242)
(2.27002e-15 2.87686 -0.446377)
(1.95949e-15 2.2233 -0.427473)
(1.60462e-15 2.5788 -0.498834)
(2.82711e-15 2.33622 -1.12687)
(3.11746e-15 3.27656 0.0506229)
(4.14106e-15 1.50299 -3.44213)
(5.63042e-15 2.86832 2.56074)
(4.554e-15 3.13415 4.5742)
(6.624e-15 2.85749 5.49898)
(8.49038e-15 3.38599 6.00194)
(8.84688e-15 3.27378 5.90959)
(1.90005e-15 3.81922 6.03432)
(-8.95812e-15 2.53966 5.96286)
(-2.14001e-14 5.44266 13.0422)
(-2.72166e-14 5.89927 14.7818)
(-3.16521e-14 6.03071 16.2101)
(-3.47447e-14 6.1284 16.9561)
(-3.77628e-14 6.04013 17.2283)
(-4.1165e-14 6.10331 17.0775)
(-4.46081e-14 5.90929 16.9435)
(-4.81431e-14 6.05011 16.555)
(-5.04055e-14 5.81922 16.469)
(-5.22601e-14 6.01008 15.9943)
(-5.26093e-14 5.83454 16.2599)
(-5.28818e-14 5.90998 15.4244)
(-5.20707e-14 5.91337 16.383)
(-5.62267e-14 6.08845 14.2073)
(-3.34749e-14 2.65955 7.17293)
(-2.65626e-14 1.64613 5.65967)
(-1.33525e-14 1.34198 3.42594)
(1.01658e-14 0.921682 -0.0883792)
(1.16714e-14 -0.335326 -2.03597)
(2.96211e-15 0.0869792 -2.29186)
(-6.72305e-15 0.484668 -2.18252)
(2.17738e-15 0.422836 -0.180496)
(-5.30877e-14 -0.331006 -0.583055)
(-3.06738e-14 0.203427 0.263288)
(-4.91953e-14 -0.727254 -0.526985)
(-3.83664e-14 -0.520543 -2.47508)
(-3.15743e-14 -0.123224 -2.44554)
(-1.82999e-14 0.313976 -2.14518)
(6.44452e-15 -0.935687 -0.16338)
(2.55884e-14 -1.36377 3.37297)
(3.07577e-14 -1.65983 5.6634)
(3.55662e-14 -2.67779 7.18705)
(5.69383e-14 -6.11673 14.2147)
(5.18606e-14 -5.92346 16.3726)
(5.27475e-14 -5.92301 15.4041)
(5.26247e-14 -5.8445 16.2266)
(5.2445e-14 -6.02205 15.959)
(5.09222e-14 -5.82884 16.4324)
(4.8795e-14 -6.06028 16.527)
(4.55396e-14 -5.91895 16.9328)
(4.20408e-14 -6.11451 17.086)
(3.87529e-14 -6.05237 17.249)
(3.61366e-14 -6.14099 16.9763)
(3.36764e-14 -6.04244 16.2195)
(3.05129e-14 -5.90977 14.7778)
(2.68661e-14 -5.4496 13.027)
(2.22911e-14 -2.54417 5.91886)
(1.17862e-14 -3.81663 6.00728)
(8.5639e-15 -3.26793 5.88829)
(1.01261e-14 -3.38073 5.98728)
(1.19568e-14 -2.84779 5.49476)
(1.27324e-14 -3.12729 4.57829)
(1.01479e-14 -2.85771 2.56866)
(8.18729e-15 -1.49525 -3.43049)
(7.85935e-15 -3.26864 0.0625587)
(7.18926e-15 -2.33821 -1.10595)
(4.77463e-15 -2.58224 -0.492264)
(2.79201e-15 -2.22745 -0.416712)
(1.53356e-15 -2.88913 -0.43403)
(-1.3817e-16 -2.50111 -0.500124)
(2.37969e-16 -2.2835 -0.374641)
(1.06189e-15 -2.73352 -0.431094)
(6.21644e-16 -2.32501 -0.356841)
(1.13621e-15 -2.15455 -0.323037)
(1.5685e-15 -2.52336 -0.497248)
(7.6488e-17 -2.06651 -0.424295)
(-1.20647e-17 -2.14123 -0.388844)
(-3.39953e-17 -1.89164 -0.330309)
(-1.01053e-16 -2.24577 -0.395579)
(-1.25731e-16 -1.84472 -0.194538)
(-2.17126e-16 -1.74009 -0.162822)
(-3.78268e-16 -1.92697 -0.158218)
(-4.46739e-17 -1.61431 0.0336706)
(3.44306e-14 0.372669 0.41799)
(8.61535e-14 0.597618 0.466233)
(1.1726e-13 0.73488 0.526071)
(9.87999e-14 0.890577 0.60957)
(4.07997e-14 1.05031 0.712005)
(1.67443e-14 1.2286 0.840041)
(7.15323e-14 1.43116 0.999087)
(1.50432e-13 1.6697 1.20092)
(1.78375e-13 1.95456 1.46208)
(1.55022e-13 2.30139 1.79715)
(1.19303e-13 2.74955 2.178)
(8.46407e-14 3.26367 2.4663)
(4.42523e-14 3.04534 2.39882)
(4.6657e-15 -0.109438 1.14158)
(-3.59226e-15 -2.94741 -0.440974)
(-2.61744e-15 -4.1911 -0.74805)
(-3.34513e-16 -3.98493 -0.986428)
(-4.67909e-17 -3.54091 -0.764847)
(-9.03038e-17 -2.33418 -0.935668)
(-4.41073e-14 0.357043 0.585117)
(-1.4221e-14 0.562814 0.649737)
(2.86836e-14 0.686783 0.729117)
(6.75467e-15 0.828506 0.841496)
(-7.54198e-14 0.972988 0.978338)
(-1.19567e-13 1.13218 1.15008)
(-4.84365e-14 1.30938 1.36577)
(8.06655e-14 1.51211 1.64798)
(1.63108e-13 1.74895 2.03305)
(1.73291e-13 2.05042 2.56452)
(1.42394e-13 2.50819 3.23607)
(9.13893e-14 3.1652 3.90275)
(3.34422e-14 3.3783 4.25251)
(-6.13601e-15 1.18048 3.05771)
(-7.12395e-15 -2.62132 -0.457515)
(-2.82301e-15 -4.15564 -0.551721)
(-3.11073e-16 -3.97167 -0.718721)
(-2.71624e-17 -3.48316 -0.643238)
(-8.11435e-17 -2.45283 -0.86781)
(-2.83973e-13 0.343438 0.688984)
(-3.24115e-13 0.537339 0.767519)
(-2.46873e-13 0.651321 0.859603)
(-2.45632e-13 0.78347 0.990897)
(-3.50589e-13 0.916965 1.14935)
(-4.5045e-13 1.06157 1.34832)
(-3.95277e-13 1.21692 1.60153)
(-1.95525e-13 1.38415 1.94597)
(7.0957e-15 1.56544 2.44529)
(1.0928e-13 1.79443 3.18361)
(1.11558e-13 2.18999 4.2007)
(6.25128e-14 2.86354 5.38364)
(1.04022e-14 3.40984 6.35216)
(-1.33491e-14 2.17224 5.58915)
(-9.73988e-15 -1.83399 0.656341)
(-3.53546e-15 -4.03127 -0.423986)
(-4.53315e-16 -3.94226 -0.318944)
(-5.55521e-18 -3.45191 -0.423304)
(-6.18558e-17 -2.5058 -0.658649)
(-7.88122e-13 0.322966 0.803689)
(-8.99834e-13 0.499382 0.904463)
(-7.2286e-13 0.599238 1.01388)
(-6.95908e-13 0.717578 1.16923)
(-8.91537e-13 0.835261 1.35423)
(-1.11788e-12 0.958169 1.58611)
(-1.05918e-12 1.07842 1.88769)
(-6.70839e-13 1.18452 2.3223)
(-2.22016e-13 1.26627 2.99768)
(3.01269e-14 1.36057 4.04274)
(7.37031e-14 1.63236 5.51059)
(3.10594e-14 2.30987 7.24303)
(-8.16455e-15 3.28431 8.72915)
(-1.66782e-14 3.23285 8.50791)
(-6.63891e-15 -0.172891 3.95057)
(-3.10916e-15 -3.60765 -0.408697)
(-9.70769e-16 -3.98244 0.237333)
(-1.80729e-16 -3.31643 -0.132331)
(-4.3502e-16 -2.61526 -0.530218)
(-1.60675e-12 0.297698 0.921651)
(-1.70735e-12 0.456218 1.04952)
(-1.37637e-12 0.542105 1.17851)
(-1.40229e-12 0.646482 1.36037)
(-1.81965e-12 0.747786 1.57381)
(-2.21385e-12 0.845627 1.8416)
(-2.03271e-12 0.918787 2.20208)
(-1.25806e-12 0.93597 2.75766)
(-4.36824e-13 0.87485 3.65988)
(-2.209e-14 0.788231 5.02113)
(4.46398e-14 0.911351 6.76044)
(7.66108e-15 1.59982 8.52788)
(-1.64511e-14 2.97193 9.82901)
(-1.46122e-14 4.03535 9.98417)
(-4.18224e-15 2.00952 7.21168)
(-2.67793e-16 -2.75795 0.847991)
(-9.26068e-16 -3.91711 0.391957)
(4.98089e-16 -3.03161 0.558967)
(1.78547e-15 -2.32194 0.278267)
(-2.63202e-12 0.264817 1.04755)
(-2.56408e-12 0.402272 1.20835)
(-2.14359e-12 0.472964 1.36009)
(-2.42129e-12 0.561512 1.57206)
(-3.18762e-12 0.643664 1.81791)
(-3.66369e-12 0.708596 2.12808)
(-3.12176e-12 0.713321 2.55999)
(-1.75801e-12 0.60148 3.25137)
(-5.29965e-13 0.360088 4.34616)
(-1.78275e-14 0.121484 5.78931)
(3.96937e-14 0.248151 7.16748)
(1.14866e-14 1.11405 7.88252)
(8.97194e-15 2.7474 8.00472)
(1.46139e-14 4.32004 8.43025)
(6.78837e-15 3.50448 8.73549)
(3.50092e-16 -1.22056 4.60733)
(-1.36835e-15 -3.98367 0.261419)
(-2.06767e-15 -3.27102 0.301111)
(-6.45501e-15 -2.67102 -1.38337)
(-3.56345e-12 0.22386 1.18471)
(-3.2407e-12 0.337705 1.3843)
(-3.00333e-12 0.393042 1.56225)
(-3.764e-12 0.464418 1.80876)
(-4.8482e-12 0.524724 2.09297)
(-5.15314e-12 0.54861 2.45158)
(-4.02166e-12 0.468414 2.9427)
(-2.03162e-12 0.223879 3.67034)
(-5.25011e-13 -0.122796 4.6112)
(6.98971e-15 -0.31517 5.48619)
(7.53871e-14 0.079529 5.73861)
(8.65047e-14 1.22017 5.03741)
(1.13545e-13 2.67688 4.58997)
(8.56098e-14 3.74202 6.01879)
(2.62805e-14 3.49658 9.30971)
(6.61933e-15 0.977049 9.19481)
(3.4999e-15 -1.80489 3.41708)
(3.85907e-15 -1.93305 1.81738)
(1.2895e-14 -1.46408 3.50441)
(-4.01542e-12 0.173292 1.33457)
(-3.63458e-12 0.259883 1.57848)
(-3.96227e-12 0.299474 1.78631)
(-5.238e-12 0.351253 2.07219)
(-6.3481e-12 0.386452 2.3997)
(-6.20654e-12 0.36902 2.79901)
(-4.53001e-12 0.226079 3.27232)
(-2.19605e-12 -0.0696609 3.771)
(-6.13179e-13 -0.369964 4.15563)
(-1.41133e-15 -0.35932 4.25463)
(1.70246e-13 0.384172 3.64829)
(2.47617e-13 1.50323 3.07485)
(2.51813e-13 2.30741 3.9235)
(1.28171e-13 2.47425 6.77614)
(2.92814e-14 2.07968 11.1912)
(2.48807e-14 0.712845 14.0541)
(3.81101e-14 -1.37451 12.9274)
(4.81741e-14 -3.30618 12.2417)
(6.15039e-14 -5.09408 14.5694)
(-3.72188e-12 0.111646 1.49273)
(-3.80055e-12 0.166691 1.78377)
(-4.84107e-12 0.190296 2.02391)
(-6.27933e-12 0.220673 2.35071)
(-6.99375e-12 0.234109 2.71583)
(-6.38145e-12 0.20175 3.12435)
(-4.64731e-12 0.0791546 3.50698)
(-2.62539e-12 -0.133693 3.71525)
(-1.14489e-12 -0.307486 3.6159)
(-2.49143e-13 -0.127219 3.17309)
(2.25669e-13 0.564197 2.70459)
(3.77245e-13 1.15089 3.38406)
(2.66135e-13 1.25408 5.53203)
(6.91423e-14 0.947486 8.69748)
(2.7216e-15 0.684986 12.1784)
(3.4557e-14 0.185059 14.5254)
(4.99999e-14 -1.15906 14.5414)
(4.50697e-14 -2.62052 12.666)
(3.42144e-14 -2.57151 8.62804)
(-2.57242e-12 0.0405478 1.62963)
(-3.60815e-12 0.059909 1.9613)
(-4.94868e-12 0.067799 2.22966)
(-5.96775e-12 0.076912 2.59045)
(-6.08738e-12 0.0757754 2.97922)
(-5.30467e-12 0.049648 3.36542)
(-3.99311e-12 -0.0184318 3.61037)
(-2.55133e-12 -0.114384 3.50476)
(-1.24158e-12 -0.150581 2.95681)
(-2.04915e-13 0.0072078 2.29503)
(3.42569e-13 0.267877 2.55978)
(3.61691e-13 0.352478 4.24166)
(1.43195e-13 0.159611 6.40953)
(-4.18657e-14 -0.140617 7.90916)
(-6.35319e-14 -0.229543 8.73353)
(-9.31693e-16 -0.211136 9.10082)
(3.07149e-14 -0.453462 8.14313)
(1.72737e-14 -0.527681 5.2569)
(-1.91563e-14 0.666362 0.637523)
(-1.12306e-13 -0.0405614 1.62961)
(-2.04001e-12 -0.0599144 1.96126)
(-2.86181e-12 -0.0677852 2.22961)
(-3.2237e-12 -0.0769001 2.59037)
(-3.05843e-12 -0.0757635 2.97905)
(-2.42058e-12 -0.0491862 3.36539)
(-1.49421e-12 0.0217841 3.61263)
(-6.4112e-13 0.127812 3.51823)
(-1.38975e-13 0.186789 3.00442)
(7.11469e-14 0.056134 2.40721)
(1.56666e-13 -0.214357 2.70491)
(1.76475e-13 -0.345668 4.33366)
(9.75934e-14 -0.209408 6.41206)
(-4.20678e-15 0.0632272 7.82581)
(-3.82454e-14 0.194488 8.61355)
(-2.92479e-14 0.245941 9.0293)
(-2.71224e-14 0.491717 8.11451)
(-2.93439e-14 0.547579 5.23581)
(-1.62964e-14 -0.649366 0.757691)
(1.9525e-12 -0.111656 1.4927)
(-3.63502e-13 -0.166691 1.78373)
(-1.45988e-12 -0.190263 2.02387)
(-1.7378e-12 -0.220589 2.35063)
(-1.5091e-12 -0.233972 2.71556)
(-1.06191e-12 -0.20168 3.12349)
(-5.38315e-13 -0.0795981 3.50539)
(-1.05823e-13 0.132566 3.71623)
(6.52033e-14 0.310409 3.63447)
(6.13212e-14 0.148747 3.24825)
(3.96121e-14 -0.521873 2.87022)
(5.34809e-14 -1.11039 3.57328)
(4.74166e-14 -1.24465 5.64911)
(8.78816e-15 -0.977897 8.69393)
(-2.12852e-14 -0.721077 12.1052)
(-3.40874e-14 -0.183962 14.455)
(-4.32565e-14 1.16757 14.4527)
(-4.71424e-14 2.58716 12.5951)
(-3.25982e-14 2.51586 8.60579)
(3.0713e-12 -0.1733 1.33454)
(1.06978e-12 -0.259884 1.57844)
(-3.80452e-13 -0.299447 1.78628)
(-8.55246e-13 -0.351167 2.07219)
(-6.83275e-13 -0.386246 2.39976)
(-3.39259e-13 -0.368547 2.79919)
(-8.24138e-14 -0.224966 3.27292)
(5.79259e-14 0.0717192 3.77323)
(7.95058e-14 0.372023 4.16339)
(3.59375e-14 0.36322 4.28355)
(-2.70834e-15 -0.36683 3.73876)
(-8.18411e-15 -1.4693 3.23739)
(-4.42225e-17 -2.27608 4.10745)
(-1.93249e-15 -2.47398 6.92717)
(-1.59699e-14 -2.08704 11.2774)
(-3.09885e-14 -0.673874 14.0408)
(-3.81629e-14 1.40469 12.8541)
(-4.6396e-14 3.27958 12.2561)
(-5.86853e-14 5.0468 14.6065)
(3.13546e-12 -0.223867 1.18466)
(1.87407e-12 -0.337709 1.38425)
(3.97958e-13 -0.393027 1.56222)
(-2.79141e-13 -0.464361 1.80879)
(-2.50212e-13 -0.52459 2.09313)
(2.94372e-14 -0.548418 2.45198)
(1.70611e-13 -0.468507 2.94354)
(1.5171e-13 -0.225529 3.67252)
(8.09814e-14 0.117335 4.61731)
(2.37335e-14 0.304707 5.50219)
(-6.31931e-15 -0.0894609 5.78412)
(-1.60052e-14 -1.21704 5.14829)
(-1.63593e-14 -2.66373 4.77939)
(-1.17697e-14 -3.73497 6.25581)
(-1.08176e-14 -3.47049 9.4714)
(-1.08994e-14 -0.908104 9.13705)
(-3.92379e-15 1.82058 3.36395)
(-4.46298e-15 1.85832 1.85569)
(-9.03773e-15 1.41131 3.55738)
(2.46367e-12 -0.264822 1.04749)
(1.92252e-12 -0.40228 1.20829)
(7.68265e-13 -0.472967 1.36005)
(7.3558e-14 -0.561501 1.57209)
(-2.89585e-14 -0.643621 1.81809)
(1.76736e-13 -0.708532 2.12858)
(2.85296e-13 -0.713436 2.56101)
(2.19078e-13 -0.602662 3.25287)
(1.05806e-13 -0.364906 4.34697)
(3.18202e-14 -0.133905 5.78893)
(2.16194e-15 -0.269688 7.16942)
(-5.52244e-15 -1.139 7.91222)
(-7.60864e-15 -2.7664 8.09894)
(-6.56127e-15 -4.30915 8.57661)
(-3.43687e-15 -3.40415 8.79685)
(-1.06866e-16 1.35269 4.47862)
(9.96826e-16 3.97674 0.302606)
(2.03635e-15 3.19973 0.304772)
(4.79203e-15 2.61772 -1.42924)
(1.54789e-12 -0.297701 0.921591)
(1.43694e-12 -0.456229 1.04945)
(7.30764e-13 -0.542122 1.17846)
(2.06695e-13 -0.646512 1.36037)
(6.79765e-14 -0.747836 1.57394)
(1.99593e-13 -0.845728 1.84203)
(2.91895e-13 -0.919084 2.203)
(2.37711e-13 -0.937066 2.75902)
(1.27995e-13 -0.878745 3.66035)
(4.78473e-14 -0.798864 5.0172)
(1.163e-14 -0.932873 6.74844)
(1.80398e-15 -1.63184 8.51085)
(8.78652e-16 -3.00055 9.8196)
(1.60892e-15 -4.01273 9.97417)
(1.92983e-15 -1.87868 7.12333)
(5.65141e-16 2.82922 0.800805)
(-1.75138e-16 3.8901 0.451707)
(-6.04352e-16 2.98775 0.551477)
(-1.29282e-15 2.27799 0.244093)
(7.68833e-13 -0.322967 0.803628)
(7.94522e-13 -0.499394 0.90439)
(4.49378e-13 -0.599267 1.01382)
(1.60944e-13 -0.717639 1.1692)
(7.94268e-14 -0.835384 1.35429)
(1.66352e-13 -0.958415 1.58638)
(2.3542e-13 -1.07892 1.88834)
(2.05356e-13 -1.18565 2.32342)
(1.25503e-13 -1.2693 2.99859)
(5.65364e-14 -1.36845 4.04053)
(1.90691e-14 -1.64915 5.49925)
(5.89396e-15 -2.33627 7.21519)
(3.47996e-15 -3.30404 8.67863)
(3.99887e-15 -3.19035 8.41641)
(2.61219e-15 0.306445 3.79166)
(1.09954e-16 3.66106 -0.381221)
(1.38397e-16 3.9618 0.254272)
(-3.25023e-18 3.28203 -0.138592)
(1.65619e-16 2.56512 -0.549291)
(2.77399e-13 -0.343435 0.688924)
(2.84548e-13 -0.53735 0.767445)
(1.39969e-13 -0.651356 0.859535)
(3.48983e-14 -0.783549 0.99085)
(3.95339e-14 -0.917132 1.14935)
(1.15557e-13 -1.06191 1.34845)
(1.61143e-13 -1.21756 1.60188)
(1.45325e-13 -1.38536 1.94664)
(9.89008e-14 -1.56799 2.44602)
(5.17967e-14 -1.80012 3.18252)
(2.11259e-14 -2.20147 4.19258)
(7.94051e-15 -2.88062 5.35965)
(3.6393e-15 -3.41468 6.30225)
(2.92052e-15 -2.11603 5.49523)
(9.18716e-16 1.90318 0.566639)
(2.37311e-16 4.06094 -0.40489)
(4.91566e-18 3.92775 -0.315675)
(-8.17875e-17 3.42124 -0.429099)
(-7.91691e-17 2.45875 -0.671487)
(4.14503e-14 -0.357037 0.585058)
(-1.037e-15 -0.562824 0.649661)
(-6.89285e-14 -0.686822 0.729042)
(-8.06117e-14 -0.828597 0.841428)
(-1.50134e-14 -0.973181 0.978295)
(6.72484e-14 -1.13256 1.15008)
(9.87447e-14 -1.3101 1.36586)
(8.66876e-14 -1.5134 1.64819)
(6.34343e-14 -1.75131 2.03321)
(3.77849e-14 -2.05482 2.56349)
(1.75522e-14 -2.51592 3.23018)
(7.72047e-15 -3.17482 3.88502)
(3.22723e-15 -3.3719 4.21354)
(1.69897e-15 -1.11167 2.97679)
(3.36287e-16 2.67518 -0.492922)
(2.02944e-16 4.17111 -0.547224)
(1.72024e-17 3.96064 -0.720145)
(-7.25109e-17 3.45393 -0.648807)
(-4.03857e-17 2.40373 -0.874139)
(-3.54606e-14 -0.372659 0.417936)
(-9.08866e-14 -0.59762 0.466163)
(-1.28409e-13 -0.734915 0.525994)
(-1.149e-13 -0.890667 0.609485)
(-4.62876e-14 -1.0505 0.711917)
(2.13584e-14 -1.22898 0.839947)
(4.13432e-14 -1.43186 0.998974)
(3.13995e-14 -1.67092 1.20075)
(2.25045e-14 -1.95659 1.4617)
(1.49367e-14 -2.30459 1.79596)
(7.41575e-15 -2.75392 2.17414)
(3.68927e-15 -3.26639 2.45607)
(1.47073e-15 -3.0287 2.37548)
(6.11717e-16 0.195524 1.07662)
(2.42833e-16 2.99065 -0.471803)
(1.94165e-16 4.20494 -0.752493)
(1.6796e-17 3.97568 -0.991451)
(-7.86024e-17 3.5122 -0.767395)
(-4.56498e-17 2.28657 -0.936755)
(-2.43655e-16 9.05431 16.9914)
(-7.1358e-15 12.3332 19.3355)
(-6.47909e-15 10.0153 17.1122)
(-6.24915e-15 9.94192 15.2786)
(-5.579e-15 9.45404 15.2469)
(-4.08127e-15 9.82624 15.0468)
(-2.0278e-15 9.55271 14.7138)
(-4.39384e-16 9.56943 14.5117)
(-4.09058e-16 9.47556 14.4892)
(1.12542e-16 9.40768 14.518)
(8.06318e-16 9.42339 14.5327)
(9.53748e-16 9.22405 14.7018)
(1.42768e-15 9.38908 14.6608)
(2.13567e-15 9.014 14.9432)
(1.62542e-15 9.40213 14.77)
(1.98772e-15 8.76694 15.1814)
(1.63406e-15 9.4469 14.8434)
(1.31484e-15 8.59308 15.5378)
(1.19102e-15 9.07482 14.2183)
(7.31669e-16 9.46627 17.628)
(2.19594e-16 9.18175 17.094)
(-7.4619e-15 11.2634 17.9462)
(-6.12704e-15 8.66588 15.789)
(-6.91659e-15 8.83137 14.0876)
(-5.72619e-15 8.08708 14.2571)
(-8.45274e-15 8.55629 14.0869)
(-5.98739e-15 8.33118 14.3988)
(-5.37301e-15 8.55987 14.3591)
(-6.31086e-15 8.49997 14.4194)
(-6.23716e-15 8.52544 14.4351)
(-5.72113e-15 8.6085 14.3974)
(-6.12657e-15 8.47638 14.4967)
(-6.03234e-15 8.70254 14.3635)
(-6.13632e-15 8.38827 14.5749)
(-6.75463e-15 8.79895 14.3201)
(-6.73216e-15 8.26135 14.6634)
(-7.03271e-15 8.88757 14.2725)
(-6.37213e-15 8.20777 14.8918)
(-6.32867e-15 8.58245 13.6203)
(-5.55023e-15 8.80074 16.1283)
(-3.25371e-17 9.74687 18.2252)
(-2.08994e-15 11.9846 19.2836)
(-1.50346e-15 9.63759 17.0871)
(-2.19509e-15 9.36458 14.9248)
(-1.65949e-15 8.60675 14.5806)
(-5.07253e-15 8.81406 14.3601)
(-4.25387e-15 8.63912 14.4378)
(-3.69053e-15 8.70058 14.4029)
(-3.67198e-15 8.64875 14.4129)
(-3.38443e-15 8.6111 14.4283)
(-3.11443e-15 8.65117 14.392)
(-3.40556e-15 8.52224 14.4717)
(-3.24553e-15 8.67535 14.3718)
(-3.32286e-15 8.42 14.5405)
(-2.74401e-15 8.72553 14.3461)
(-3.29223e-15 8.30194 14.6211)
(-3.40087e-15 8.7852 14.319)
(-2.6395e-15 8.27024 14.8344)
(-2.8897e-15 8.51034 13.7657)
(-2.45697e-15 8.6414 15.6251)
(2.90715e-18 10.0197 18.5699)
(7.47523e-16 12.4562 20.2445)
(6.55321e-16 10.1615 17.8277)
(7.42656e-16 9.50027 15.1745)
(7.82846e-16 8.57394 14.3861)
(-3.09355e-15 8.65021 14.082)
(-2.32886e-15 8.52238 14.1811)
(-2.14778e-15 8.57815 14.1847)
(-2.45729e-15 8.53987 14.1969)
(-2.44795e-15 8.50314 14.2087)
(-2.64714e-15 8.52895 14.1768)
(-2.81374e-15 8.4244 14.2372)
(-2.70389e-15 8.53218 14.1569)
(-2.40562e-15 8.33683 14.2871)
(-1.93661e-15 8.55407 14.1363)
(-2.30718e-15 8.2409 14.3486)
(-2.4692e-15 8.58094 14.1196)
(-1.93896e-15 8.2303 14.5357)
(-2.79119e-15 8.33373 13.6878)
(-2.80517e-15 8.28838 14.7007)
(-8.55473e-19 10.3443 19.0498)
(-1.93419e-16 13.3503 21.8673)
(-1.94099e-16 11.0658 19.1511)
(-1.89063e-16 9.87899 15.7941)
(-2.38679e-16 8.68991 14.3519)
(7.23181e-16 8.56499 13.8679)
(7.89142e-16 8.4831 13.9458)
(7.06803e-16 8.51958 13.9996)
(7.52113e-16 8.49657 14.0165)
(7.14561e-16 8.45356 14.029)
(6.63318e-16 8.46032 14.0065)
(7.30194e-16 8.37803 14.0514)
(7.06739e-16 8.43726 13.9992)
(7.02623e-16 8.30017 14.0933)
(6.35235e-16 8.4297 13.9955)
(7.13046e-16 8.22142 14.1457)
(7.44816e-16 8.42647 13.9988)
(6.22467e-16 8.22333 14.3132)
(6.69904e-16 8.23162 13.7207)
(6.31033e-16 7.94836 13.8719)
(6.72741e-19 10.6395 19.5277)
(1.59607e-17 14.441 23.6911)
(1.03479e-17 11.8286 20.4245)
(5.21907e-18 10.0973 16.2257)
(1.27527e-17 8.58226 14.2438)
(-1.29118e-16 8.36182 13.5791)
(-1.52739e-16 8.30995 13.6793)
(-1.37595e-16 8.37248 13.7613)
(-1.36983e-16 8.35907 13.7877)
(-1.31077e-16 8.32701 13.7918)
(-1.29158e-16 8.32184 13.776)
(-1.4299e-16 8.26596 13.804)
(-1.36799e-16 8.29005 13.7737)
(-1.34544e-16 8.20604 13.835)
(-1.36212e-16 8.2666 13.7816)
(-1.46127e-16 8.14863 13.876)
(-1.51563e-16 8.24198 13.7998)
(-1.40708e-16 8.16231 14.0198)
(-1.44568e-16 8.09307 13.6554)
(-1.25426e-16 7.5338 12.9503)
(-2.26844e-19 11.0412 20.3435)
(8.79964e-18 15.606 25.4186)
(1.20313e-17 12.059 21.1494)
(1.22862e-17 9.99422 16.1847)
(1.50664e-17 8.28038 14.1986)
(6.92166e-18 8.20963 13.4741)
(-9.88385e-18 8.13438 13.6237)
(-1.15633e-17 8.2454 13.6613)
(-8.44368e-18 8.21762 13.676)
(-7.37021e-18 8.20161 13.6504)
(-6.57862e-18 8.18569 13.6273)
(-4.33217e-18 8.15186 13.63)
(-5.37822e-18 8.15198 13.6074)
(-4.44516e-18 8.10801 13.635)
(-3.58872e-18 8.12107 13.6082)
(-9.80796e-19 8.0664 13.6504)
(1.65924e-18 8.08065 13.6182)
(2.23122e-18 8.07756 13.7492)
(3.65369e-18 7.95537 13.5407)
(1.2411e-17 7.08588 12.0623)
(-5.48434e-20 11.6627 21.6669)
(-2.92512e-18 16.3554 26.2687)
(-3.12557e-18 11.3022 20.6292)
(-2.5289e-18 9.68557 15.6568)
(-3.39496e-18 8.04654 14.4898)
(3.94002e-18 8.34883 13.7302)
(1.03792e-17 8.10757 13.8721)
(1.04354e-17 8.25877 13.7529)
(9.20334e-18 8.17499 13.7161)
(8.99057e-18 8.16362 13.631)
(9.03528e-18 8.12719 13.5775)
(9.03923e-18 8.09947 13.5409)
(9.51815e-18 8.0766 13.5077)
(9.50739e-18 8.05176 13.4978)
(9.62255e-18 8.02857 13.4763)
(9.44345e-18 8.00336 13.4675)
(8.79658e-18 7.95868 13.4439)
(8.85775e-18 7.97657 13.4865)
(8.31191e-18 7.79567 13.3203)
(2.35905e-18 6.61893 11.222)
(1.0769e-19 12.5396 23.4253)
(-2.9356e-19 16.1255 25.5918)
(-7.65889e-19 10.0724 19.3327)
(-9.18306e-19 9.83002 15.6263)
(-1.0881e-18 8.32263 15.3101)
(4.93695e-20 8.84207 14.3684)
(1.22128e-18 8.37006 14.3384)
(1.42794e-18 8.48897 14.0185)
(1.33429e-18 8.33271 13.8789)
(1.17336e-18 8.28916 13.7103)
(1.0813e-18 8.21606 13.5965)
(9.47631e-19 8.16577 13.5055)
(6.3489e-19 8.11148 13.4406)
(4.11877e-19 8.075 13.3891)
(2.86728e-19 8.01691 13.3494)
(-9.09568e-21 7.97879 13.2905)
(-1.6357e-19 7.88177 13.2339)
(-5.29141e-19 7.8554 13.1807)
(-6.30546e-19 7.58961 12.9333)
(-4.75307e-19 6.13949 10.4036)
(-6.06033e-20 13.3847 24.9534)
(5.62033e-19 14.9198 23.7501)
(8.31832e-19 9.86346 19.0436)
(7.91216e-19 10.5344 16.6424)
(1.02256e-18 9.13141 16.2985)
(-1.14356e-18 9.45327 15.2045)
(-2.94888e-18 8.90318 14.847)
(-3.14645e-18 8.86927 14.3636)
(-2.92263e-18 8.66287 14.0672)
(-2.81656e-18 8.54413 13.7971)
(-2.81136e-18 8.42009 13.5919)
(-2.78924e-18 8.31946 13.4283)
(-2.67538e-18 8.22098 13.308)
(-2.5651e-18 8.14367 13.2066)
(-2.52634e-18 8.04334 13.1247)
(-2.36782e-18 7.95535 13.0112)
(-2.1832e-18 7.79519 12.8815)
(-1.98638e-18 7.66943 12.7069)
(-1.787e-18 7.27551 12.2889)
(-6.16229e-19 5.6008 9.44863)
(2.08572e-20 13.6855 25.3617)
(-2.61647e-19 13.9743 22.6698)
(-3.31578e-19 11.1012 20.4042)
(-2.97183e-19 11.4087 18.2025)
(-4.15124e-19 10.1976 17.3101)
(5.8686e-19 10.1 16.1148)
(1.46158e-18 9.58055 15.3972)
(1.59815e-18 9.34531 14.7503)
(1.49844e-18 9.0849 14.2609)
(1.45473e-18 8.86977 13.8548)
(1.46754e-18 8.67542 13.5246)
(1.48207e-18 8.50362 13.2582)
(1.46513e-18 8.34334 13.0512)
(1.44098e-18 8.20185 12.8771)
(1.44179e-18 8.04198 12.7241)
(1.40637e-18 7.87749 12.5348)
(1.3379e-18 7.62628 12.2946)
(1.28738e-18 7.36439 11.9496)
(1.20166e-18 6.78825 11.3147)
(4.988e-19 4.91367 8.14037)
(-4.44471e-21 13.3678 24.6301)
(7.696e-20 14.5702 23.988)
(8.97718e-20 12.7539 22.4118)
(7.74922e-20 12.371 19.8831)
(1.1423e-19 11.2528 18.4567)
(-1.6454e-19 10.8253 17.0948)
(-4.33134e-19 10.2894 16.0781)
(-4.94563e-19 9.89166 15.2199)
(-4.69356e-19 9.54121 14.5097)
(-4.54638e-19 9.22236 13.9162)
(-4.59974e-19 8.9349 13.4171)
(-4.70071e-19 8.67311 13.0023)
(-4.74179e-19 8.42874 12.6638)
(-4.75573e-19 8.20074 12.3743)
(-4.83194e-19 7.95446 12.1084)
(-4.85356e-19 7.68889 11.7999)
(-4.76011e-19 7.30832 11.4071)
(-4.7681e-19 6.88485 10.8298)
(-4.66163e-19 6.07021 9.94843)
(-2.29035e-19 3.98901 6.29633)
(8.50219e-22 13.1388 24.2323)
(-1.67867e-20 16.1722 26.4516)
(-1.8811e-20 14.0502 24.4256)
(-1.55706e-20 13.3823 21.4837)
(-2.34237e-20 12.1591 19.8111)
(3.203e-20 11.6009 18.2289)
(9.01873e-20 10.9737 16.9822)
(1.07365e-19 10.4555 15.8755)
(1.0313e-19 9.98845 14.9134)
(9.9155e-20 9.55455 14.0792)
(9.98714e-20 9.15458 13.3553)
(1.02732e-19 8.7825 12.7325)
(1.05366e-19 8.42913 12.2005)
(1.07825e-19 8.08862 11.7304)
(1.11754e-19 7.7227 11.2875)
(1.1589e-19 7.32595 10.7939)
(1.18193e-19 6.78083 10.1948)
(1.24221e-19 6.17915 9.33434)
(1.30501e-19 5.08345 8.16108)
(8.23723e-20 2.80561 3.87828)
(-1.47019e-22 13.3605 24.9298)
(2.95275e-21 17.8093 28.5423)
(3.2321e-21 14.7468 26.072)
(2.55984e-21 14.3025 22.8367)
(3.81093e-21 12.8375 21.2817)
(-5.0098e-21 12.334 19.5011)
(-1.45879e-20 11.556 18.1126)
(-1.77419e-20 10.946 16.7642)
(-1.70894e-20 10.3509 15.552)
(-1.62045e-20 9.79164 14.4521)
(-1.60999e-20 9.26386 13.4599)
(-1.65105e-20 8.76083 12.5705)
(-1.70845e-20 8.27138 11.7739)
(-1.77781e-20 7.78789 11.0414)
(-1.88188e-20 7.26809 10.3383)
(-2.0176e-20 6.71213 9.58363)
(-2.15281e-20 5.9909 8.7281)
(-2.39344e-20 5.21698 7.56961)
(-2.77289e-20 3.82366 6.01607)
(-2.72685e-20 1.47263 1.13469)
(2.28701e-23 14.1259 26.8999)
(-4.40425e-22 18.8796 29.5006)
(-4.73574e-22 14.7986 27.0412)
(-3.59764e-22 15.0633 23.8386)
(-5.221e-22 13.2044 22.6182)
(7.06073e-22 12.9094 20.6625)
(2.01339e-21 11.9076 19.255)
(2.43384e-21 11.257 17.7229)
(2.31607e-21 10.53 16.3376)
(2.15061e-21 9.8548 15.0104)
(2.09079e-21 9.19425 13.7621)
(2.11438e-21 8.54831 12.5857)
(2.1815e-21 7.90284 11.4779)
(2.28623e-21 7.25636 10.4168)
(2.45674e-21 6.56803 9.38472)
(2.70932e-21 5.85469 8.31499)
(3.0211e-21 4.97819 7.17552)
(3.56713e-21 4.05479 5.71151)
(4.69222e-21 2.30424 3.63654)
(2.3734e-21 0.241276 -1.19979)
(-3.00915e-24 15.0429 29.4242)
(5.75416e-23 19.1714 29.2598)
(6.03745e-23 14.4995 27.5178)
(4.4213e-23 15.6316 24.5012)
(6.2445e-23 13.308 23.5469)
(-9.29761e-23 13.2772 21.4586)
(-2.49048e-22 12.055 20.1109)
(-2.93152e-22 11.4466 18.4857)
(-2.72541e-22 10.6241 17.0462)
(-2.46572e-22 9.89996 15.59)
(-2.33105e-22 9.15541 14.1782)
(-2.29842e-22 8.42012 12.7852)
(-2.32478e-22 7.67448 11.4227)
(-2.40188e-22 6.9342 10.0759)
(-2.55927e-22 6.14237 8.7337)
(-2.83888e-22 5.30916 7.31012)
(-3.26966e-22 4.23704 5.7806)
(-4.06759e-22 3.08669 3.90289)
(-7.31489e-22 0.828514 1.25168)
(2.34208e-21 -0.923293 -3.43292)
(3.39493e-25 15.377 31.1287)
(-6.92764e-24 18.8565 28.3724)
(-6.98087e-24 14.1557 27.8001)
(-4.93007e-24 15.7038 24.9154)
(-7.02168e-24 13.2076 24.0308)
(1.23772e-23 13.2511 21.9996)
(2.94953e-23 12.0024 20.7085)
(3.28219e-23 11.4621 19.1272)
(2.9327e-23 10.6576 17.7366)
(2.5536e-23 10.0013 16.2945)
(2.30868e-23 9.31302 14.8877)
(2.15972e-23 8.66526 13.4815)
(2.05683e-23 8.03643 12.1086)
(1.98473e-23 7.43434 10.7174)
(1.9698e-23 6.68379 9.15261)
(2.05614e-23 5.66627 7.12827)
(2.29525e-23 4.08579 4.70679)
(2.98422e-23 2.4627 2.2065)
(-1.97861e-24 -0.0814194 -0.36015)
(4.64512e-22 -1.65894 -4.65653)
(-1.26568e-26 14.5037 31.3067)
(7.39813e-25 18.3671 27.8577)
(6.61183e-25 13.6208 27.862)
(4.78668e-25 14.6875 25.3905)
(3.44885e-25 12.5734 24.4273)
(-1.61652e-24 12.2134 22.7707)
(-2.84794e-24 11.1341 21.5302)
(-2.84797e-24 10.4903 20.1661)
(-2.46139e-24 9.73601 18.9088)
(-2.14683e-24 9.1084 17.6348)
(-1.96951e-24 8.496 16.4018)
(-1.88188e-24 7.97184 15.2153)
(-1.8543e-24 7.51827 14.1024)
(-1.87615e-24 7.0304 12.8652)
(-1.90318e-24 6.07652 10.8852)
(-1.8885e-24 4.22661 7.3234)
(-1.88589e-24 1.22884 2.3315)
(3.48133e-24 -1.47327 -3.1957)
(5.68968e-23 -3.92491 -4.93554)
(-6.41144e-23 -3.33586 -8.17577)
(-1.97371e-27 11.407 28.9063)
(-6.85099e-26 17.1519 25.3733)
(-5.274e-26 12.1539 25.7331)
(-3.00001e-26 12.7545 24.0489)
(1.57118e-26 11.0253 23.3119)
(1.45352e-25 10.3394 22.2434)
(1.8578e-25 9.34843 21.3446)
(1.60992e-25 8.56624 20.4161)
(1.30533e-25 7.79465 19.5163)
(1.10359e-25 7.09713 18.6152)
(9.88912e-26 6.4538 17.7253)
(9.23724e-26 5.8806 16.8667)
(8.75999e-26 5.35314 16.011)
(8.0447e-26 4.71588 14.8964)
(8.04394e-26 3.60082 12.8509)
(1.70829e-25 1.65557 9.11695)
(4.36672e-25 -0.787282 4.00222)
(-3.20719e-25 -2.66885 -0.552171)
(-9.2962e-24 -3.34767 -3.13291)
(-4.61985e-23 -2.17417 -3.74345)
(8.0392e-28 2.65383 17.1614)
(4.21477e-27 8.05051 13.7622)
(2.40887e-27 5.16648 14.6412)
(3.9141e-28 4.95611 14.2644)
(-2.73602e-27 4.01251 14.242)
(-6.75066e-27 3.42597 14.0852)
(-6.67932e-27 2.82688 13.9482)
(-5.1763e-27 2.3316 13.7793)
(-4.01286e-27 1.89569 13.5935)
(-3.31565e-27 1.53083 13.3822)
(-2.90706e-27 1.23135 13.1449)
(-2.63393e-27 0.999304 12.8826)
(-2.35922e-27 0.839463 12.6146)
(-2.0151e-27 0.782694 12.3797)
(-2.25557e-27 0.880733 12.2057)
(-5.40923e-27 1.1299 12.0453)
(-1.10021e-26 1.5747 11.6611)
(5.11603e-27 2.46976 10.6585)
(1.13069e-25 2.86354 9.18552)
(3.17268e-25 -0.0204243 7.05881)
(-8.03056e-28 -2.65382 17.1613)
(-4.21417e-27 -8.05051 13.7622)
(-2.40645e-27 -5.16646 14.6412)
(-3.88626e-28 -4.95606 14.2644)
(2.73457e-27 -4.01243 14.242)
(6.74418e-27 -3.42585 14.0853)
(6.67794e-27 -2.82671 13.9484)
(5.18363e-27 -2.33136 13.7795)
(4.02611e-27 -1.89534 13.5937)
(3.33584e-27 -1.53034 13.3824)
(2.9199e-27 -1.23071 13.145)
(2.63415e-27 -0.998547 12.8827)
(2.35258e-27 -0.838756 12.615)
(2.01618e-27 -0.782348 12.3808)
(2.28107e-27 -0.88107 12.2077)
(5.38781e-27 -1.13101 12.0476)
(1.03636e-26 -1.57629 11.663)
(-8.07564e-27 -2.47137 10.6601)
(-1.20856e-25 -2.86489 9.18696)
(-3.27654e-25 0.0200475 7.05973)
(1.96441e-27 -11.4075 28.9069)
(6.85236e-26 -17.1517 25.3739)
(5.27092e-26 -12.1539 25.7339)
(2.99249e-26 -12.7543 24.05)
(-1.57042e-26 -11.0249 23.3132)
(-1.45096e-25 -10.3388 22.2449)
(-1.85608e-25 -9.34759 21.3462)
(-1.61133e-25 -8.56513 20.4179)
(-1.30838e-25 -7.79319 19.5183)
(-1.11091e-25 -7.09529 18.6173)
(-9.95708e-26 -6.45155 17.7274)
(-9.25945e-26 -5.87788 16.8688)
(-8.73891e-26 -5.34954 16.0125)
(-8.02852e-26 -4.71027 14.8951)
(-8.12747e-26 -3.59189 12.8441)
(-1.73262e-25 -1.64436 9.10533)
(-4.25336e-25 0.795768 3.99306)
(4.23154e-25 2.67062 -0.553354)
(9.64572e-24 3.34536 -3.12867)
(4.65808e-23 2.17226 -3.73734)
(1.27744e-26 -14.5047 31.3088)
(-7.40231e-25 -18.3684 27.8609)
(-6.61062e-25 -13.6222 27.865)
(-4.77637e-25 -14.6886 25.3941)
(-3.44293e-25 -12.5747 24.4313)
(1.61184e-24 -12.2145 22.7751)
(2.8429e-24 -11.1353 21.535)
(2.84972e-24 -10.4913 20.1713)
(2.46443e-24 -9.73693 18.9142)
(2.16048e-24 -9.10912 17.6405)
(1.98796e-24 -8.49656 16.4077)
(1.89351e-24 -7.97221 15.2215)
(1.85364e-24 -7.5182 14.1083)
(1.8697e-24 -7.02858 12.8687)
(1.88984e-24 -6.07015 10.8823)
(1.87429e-24 -4.21121 7.30738)
(1.88216e-24 -1.2021 2.29831)
(-3.96704e-24 1.49776 -3.23476)
(-5.72383e-23 3.93552 -4.94741)