/*--------------------------------*- C++ -*----------------------------------*\
| =========                 |                                                 |
| \\      /  F ield         | OpenFOAM: The Open Source CFD Toolbox           |
|  \\    /   O peration     | Version:  4.1                                   |
|   \\  /    A nd           | Web:      www.OpenFOAM.org                      |
|    \\/     M anipulation  |                                                 |
\*---------------------------------------------------------------------------*/
FoamFile
{
    version     2.0;
    format      ascii;
    class       volScalarField;
    location    "12";
    object      p;
}
// * * * * * * * * * * * * * * * * * * * * * * * * * * * * * * * * * * * * * //

dimensions      [0 2 -2 0 0 0 0];

internalField   nonuniform List<scalar> 
1280
(
0.442121
0.0777219
0.432599
1.27515
1.88168
1.98196
2.16114
2.62208
2.76591
2.79258
2.78554
2.7959
1.67325
0.917478
0.27452
-3.34248
-6.26025
-7.20433
-13.5335
-20.6376
-19.4237
-3.60292
18.1078
24.8109
24.5153
26.6326
-8.7674
2.48711
2.84207
2.32966
1.51635
0.460016
-0.829229
-2.43577
-4.1716
-6.19553
-7.55296
-8.80603
-7.35464
-9.74859
-38.1669
-14.946
-5.52779
-0.493095
14.1871
12.5921
13.4064
14.3227
15.4887
14.981
14.8962
14.8218
12.9223
11.4294
10.1975
12.4966
-4.45602
-10.3058
-21.2573
-45.0993
-15.5955
-13.0757
-14.479
-13.0929
-11.6414
-9.48738
-7.61738
-5.85735
-4.41482
-3.20184
-2.22358
-1.5531
-1.83863
-13.32
25.6305
23.9721
24.6167
18.1791
-3.10303
-18.3686
-19.0359
-11.6411
-1.8837
-0.380043
1.72634
4.44753
4.63545
5.09676
5.9954
6.03143
6.03676
6.0598
5.92477
5.46909
5.11358
4.66825
3.68243
2.51465
1.16378
1.04266
0.36091
-0.0576655
0.451909
0.0516801
0.0536406
0.0652746
1.29163
2.14882
0.57799
0.745441
-0.0385239
-2.30543
-3.6692
-14.2587
-7.78449
-0.198399
2.2672
1.81967
1.46101
1.07638
0.355646
1.66563
0.314203
0.778681
0.985369
2.92647
4.49634
2.88045
2.33212
0.353474
-3.82204
-9.89492
-25.3975
-13.9663
-1.56482
3.82253
4.30754
3.79776
1.33095
0.733176
2.4665
0.395866
1.27533
1.39428
3.35995
4.9386
4.23936
3.17084
0.636473
-4.65805
-18.5147
-31.3485
-17.3797
-0.664618
6.46055
6.51526
5.67586
1.31639
0.663481
3.31549
0.655528
1.62853
1.71603
4.04083
5.32081
5.33975
3.77155
0.996187
-5.07375
-27.2946
-33.9599
-22.1805
0.0656178
9.51563
8.83434
7.13003
-0.250401
-2.02439
3.37912
0.902702
1.71781
1.90179
4.44464
5.38227
5.83616
3.52019
0.639166
-5.40856
-30.9822
-32.7761
-26.1401
0.994583
12.8458
11.1157
8.66586
-1.58175
-3.94323
1.65903
0.319515
1.17565
1.71128
4.25966
5.2196
5.57767
2.46268
-0.537706
-5.1439
-27.839
-30.9252
-28.5876
2.10673
16.6496
15.2141
8.69129
-1.51283
-4.47519
-1.86141
-1.7013
-0.520835
1.06122
3.47652
4.54205
3.72954
0.562662
-2.74968
-4.64228
-21.4035
-30.6585
-28.2284
3.27137
19.9614
17.4124
3.2806
-1.26544
-4.98302
-6.68141
-5.4715
-3.08987
-0.185933
2.12406
2.96646
0.2613
-1.84169
-5.46103
-3.58541
-13.5008
-29.4906
-23.9198
4.10901
23.7877
23.839
14.8993
-0.768201
-4.83233
-11.6059
-9.12203
-5.66424
-1.92544
0.328435
0.671444
-4.53949
-4.7022
-7.6112
-1.00739
-3.90717
-22.2088
-18.5278
4.29953
23.0386
27.2913
54.3648
-0.432039
-5.01527
-15.0969
-11.6943
-8.00909
-3.96235
-1.72702
-1.81749
-9.67071
-7.41788
-8.00962
3.36012
6.40224
-5.87237
-8.25602
3.67614
16.4024
25.8488
43.1199
-0.325375
-5.64273
-16.3737
-13.1616
-9.96718
-6.0361
-3.81362
-3.91262
-13.6454
-9.55056
-7.05316
8.12151
14.7456
7.30026
1.68732
4.61606
11.514
24.4432
43.2301
-0.340748
-5.96424
-15.9746
-14.011
-11.3797
-7.86757
-5.72235
-5.38032
-16.332
-11.7628
-5.88488
12.2468
23.2121
18.9591
9.82429
3.53383
6.02367
19.1388
50.0484
-0.669978
-5.64614
-14.5832
-13.8112
-12.0147
-9.23066
-7.26165
-6.19991
-17.9572
-14.0439
-4.72778
13.4492
26.93
22.0218
13.0429
0.287931
-4.71097
-0.134148
6.49429
-1.10132
-4.81992
-12.6128
-12.7618
-11.9132
-10.0202
-8.29982
-6.23135
-17.379
-15.3556
-3.12433
12.8519
26.0193
22.7707
12.8261
-2.84906
-8.65425
-6.47638
-0.351965
-1.46712
-3.70047
-10.5545
-11.3367
-11.3277
-10.2421
-8.68862
-5.3049
-13.8428
-15.0954
-1.42165
11.5534
22.6663
21.9575
11.4835
-2.99283
-7.13421
-4.15766
3.04147
-1.59585
-2.27835
-8.3047
-9.59865
-10.3579
-10.0324
-8.68133
-3.89703
-8.01302
-13.1713
-0.0387697
9.79884
19.3795
19.8399
9.88992
-1.25892
-4.78294
-3.19928
1.94759
-1.58577
-1.41312
-6.4085
-7.88798
-9.1828
-9.31296
-7.79321
-1.89683
-1.31708
-10.4143
1.01499
7.88738
15.6995
16.3384
7.72234
0.40323
-1.98409
-1.19963
1.92694
-1.10005
-0.378945
-4.071
-5.40316
-6.94002
-7.62452
-6.63596
-1.39159
3.54468
-8.01104
1.67546
6.233
12.1814
12.0808
5.30152
0.583845
-0.759483
-0.450915
1.20882
-0.818329
-0.309984
-2.67866
-3.57471
-4.6526
-4.63167
-2.85754
-0.158568
2.91304
-6.44206
0.96693
4.42671
8.95456
8.29168
3.3247
0.401442
-0.197212
-0.0880512
0.662806
-0.15109
0.549041
-0.0641952
-0.157738
-0.415385
-1.07505
-3.0263
-3.84626
-1.20838
-4.97922
-1.18458
0.519175
3.1794
3.24334
1.16783
0.116283
-0.0239701
-0.006183
0.174393
83.6204
84.585
83.2301
82.5371
80.8183
79.1999
77.2953
75.2226
73.0096
71.053
69.267
67.6519
66.244
65.0573
64.0976
63.3651
62.8259
62.4282
62.1623
61.7513
26.3816
29.8291
31.4374
33.4958
35.1783
36.77
38.2709
39.5714
40.763
41.8028
42.7526
43.6303
44.4475
45.2439
46.0061
46.8122
47.5648
48.4773
49.1287
50.0959
11.723
14.0319
17.1313
19.9782
22.3769
24.384
26.3368
28.1158
29.8145
31.4072
32.897
34.2983
35.6018
36.835
37.9647
39.0592
40.0243
41.0772
41.8279
42.8743
-15.4942
-13.8182
-11.6798
-9.85358
-7.97765
-6.37606
-4.54524
-2.74666
-0.806069
1.23485
3.40535
5.71602
8.14262
10.6763
13.2081
15.733
18.1198
20.5182
22.4366
25.3823
-28.1183
-30.4094
-32.0291
-34.3654
-35.9458
-38.1465
-40.0005
-42.0642
-43.8252
-45.351
-46.4109
-46.9087
-46.6941
-45.6382
-43.6741
-40.7963
-37.4659
-33.9355
-31.4325
-27.2253
-8.59292
-15.2312
-17.6918
-21.9457
-25.2493
-29.4513
-33.2581
-37.4383
-41.3854
-45.3804
-49.2299
-52.9736
-56.4761
-59.5714
-61.7922
-63.3299
-64.7486
-64.7558
-64.4766
-61.9324
50.3886
43.6976
40.9046
36.1202
32.6186
27.9771
23.872
19.4175
15.4681
11.7281
8.58899
5.99877
4.1219
2.95182
2.58866
2.80676
2.86504
2.32981
0.469999
-3.41757
103.915
102.687
102.635
101.716
101.694
100.856
100.471
99.372
98.1249
96.1145
93.3822
89.5372
84.506
78.5011
72.2925
66.7635
62.8008
61.3547
61.2073
57.0416
83.2511
84.7971
85.6096
86.0707
87.2588
87.6626
88.7093
89.2495
89.9585
90.4533
90.94
91.3191
91.5717
91.5762
91.1594
90.1626
88.883
87.4828
87.2525
86.4244
71.2749
73.3128
74.9299
75.5406
77.489
78.142
79.6521
80.5087
81.4855
82.1608
82.6464
82.9376
83.1496
83.4804
84.1835
85.3361
86.8328
88.3973
89.5379
90.4897
45.061
47.1405
49.3169
49.7824
52.306
53.0158
54.9738
56.2232
57.7836
59.2371
60.6954
62.1458
63.5687
64.9882
66.4099
67.9271
69.4639
71.2247
72.6121
74.399
19.7011
21.072
23.7693
23.7724
26.7913
27.2494
29.568
30.7993
32.6127
34.2155
35.9088
37.6202
39.3543
41.1444
42.955
44.864
46.7153
48.7765
50.364
52.8122
-8.90835
-9.50824
-6.85787
-8.06099
-5.3557
-6.0072
-4.08624
-3.79256
-2.48527
-1.61672
-0.477794
0.695544
2.03774
3.59628
5.34313
7.41718
9.59728
12.3024
14.4764
17.9558
-17.3106
-20.6838
-19.3938
-22.5388
-21.6934
-24.3901
-24.4438
-26.3885
-27.1336
-28.514
-29.4042
-30.1907
-30.535
-30.5143
-30.1397
-29.3528
-28.4161
-26.9607
-25.8114
-22.7204
9.00989
4.55381
5.41908
1.08388
1.23689
-2.43446
-3.49879
-6.50283
-8.51802
-11.2944
-13.7712
-16.3549
-18.6439
-20.7226
-22.4698
-24.033
-25.3162
-26.1107
-27.3593
-26.4597
40.6585
37.1032
39.0728
35.0495
36.9503
34.4782
35.1101
34.0297
33.9644
33.4334
33.1157
32.6538
32.1504
31.5012
30.6664
29.4929
27.9838
26.1042
23.0323
20.003
56.5749
53.1988
56.3359
50.6728
52.1466
48.7791
48.2923
46.5304
45.6618
44.7148
44.1465
43.7731
43.6635
43.7713
44.0382
44.3459
44.5458
44.4865
44.1105
43.6307
40.0891
33.9523
42.6788
36.3956
39.1031
36.4712
35.9754
34.2363
32.8304
31.1848
29.611
28.0713
26.6652
25.4276
24.4284
23.7938
23.5518
24.2155
25.5774
27.6708
50.5224
28.0097
36.0592
24.9748
22.157
15.4965
10.5196
5.25522
0.699699
-3.35601
-6.68869
-9.24858
-10.9392
-11.6845
-11.3608
-9.98117
-7.619
-4.29165
-0.945529
1.74373
743.431
660.421
611.199
554.839
505.764
458.448
414.502
373.051
334.109
297.394
262.741
229.95
198.806
169.213
141.163
113.813
87.4649
66.702
43.1832
7.04112
744.038
661.027
611.804
555.443
506.368
459.051
415.104
373.653
334.71
297.994
263.34
230.549
199.404
169.81
141.761
114.41
88.0626
67.3027
43.7863
7.64268
51.1165
28.6027
36.6519
25.5666
22.748
16.0867
11.109
5.84378
1.28751
-2.76883
-6.10204
-8.66236
-10.3533
-11.0989
-10.7756
-9.39645
-7.0341
-3.70726
-0.363818
2.32452
40.6704
34.5333
43.2593
36.9757
39.6825
37.0502
36.5538
34.8142
33.4079
31.762
30.188
28.648
27.2417
26.0038
25.0042
24.3693
24.1271
24.7927
26.1565
28.2538
57.1624
53.7897
56.9279
51.267
52.7425
49.377
48.8921
47.1324
46.2658
45.3211
44.755
44.3839
44.2765
44.3864
44.6557
44.9654
45.1666
45.1082
44.7355
44.264
41.3172
37.7664
39.7383
35.7177
37.6219
35.1524
35.7875
34.7098
34.6473
34.1188
33.8035
33.3438
32.8428
32.196
31.3635
30.1922
28.6858
26.8084
23.7415
20.7137
9.70242
5.2471
6.11333
1.77886
1.9334
-1.73629
-2.79852
-5.79996
-7.8121
-10.5848
-13.0573
-15.6365
-17.9209
-19.9959
-21.7404
-23.3021
-24.5852
-25.3806
-26.6307
-25.7383
-16.6472
-20.0233
-18.7352
-21.8811
-21.0384
-23.7359
-23.792
-25.7384
-26.4861
-27.8693
-28.7629
-29.5535
-29.9028
-29.8883
-29.5203
-28.7402
-27.8102
-26.361
-25.216
-22.1313
-8.31801
-8.92296
-6.27492
-7.48146
-4.77994
-5.43567
-3.51885
-3.23039
-1.92792
-1.06506
0.0684858
1.23643
2.57395
4.12856
5.87241
7.94456
10.1235
12.8284
15.0019
18.4808
20.2766
21.6443
24.3408
24.3418
27.3595
27.8156
30.1332
31.3629
33.1754
34.7771
36.4699
38.181
39.9151
41.7054
43.5165
45.4263
47.2783
49.3405
50.9286
53.3787
45.6201
47.6997
49.8768
50.3425
52.8669
53.5771
55.5359
56.7858
58.3469
59.8008
61.2595
62.71
64.1329
65.5525
66.9745
68.4923
70.03
71.7913
73.1788
74.9667
71.8492
73.8853
75.501
76.1095
78.0558
78.706
80.2131
81.0669
82.0409
82.7144
83.1998
83.4931
83.7106
84.0526
84.769
85.9333
87.4341
88.9989
90.1389
91.094
83.805
85.3582
86.1771
86.646
87.8423
88.2564
89.3149
89.8696
90.5942
91.1061
91.6099
92.003
92.266
92.2707
91.8415
90.8233
89.5233
88.114
87.8833
87.059
104.65
103.437
103.394
102.484
102.471
101.641
101.261
100.164
98.9144
96.8973
94.1514
90.2829
85.2193
79.1786
72.9426
67.3953
63.4201
61.9628
61.8129
57.6488
51.1518
44.4581
41.6624
36.8754
33.3691
28.7225
24.6115
20.1512
16.1953
12.4493
9.30462
6.70961
4.82845
3.6547
3.28538
3.48772
3.5268
3.00179
1.15001
-2.74758
-7.9766
-14.6256
-17.0937
-21.3577
-24.6725
-28.8863
-32.7068
-36.9013
-40.8639
-44.8743
-48.7383
-52.4951
-56.0074
-59.1047
-61.3277
-62.871
-64.2581
-64.2451
-63.9695
-61.4151
-27.4495
-29.7547
-31.3948
-33.7476
-35.3422
-37.5563
-39.4226
-41.4967
-43.2659
-44.7967
-45.8577
-46.3528
-46.1307
-45.0611
-43.0807
-40.1916
-36.8575
-33.3294
-30.8242
-26.6112
-14.9318
-13.2577
-11.1316
-9.31074
-7.43928
-5.84085
-4.01214
-2.2141
-0.272754
1.77021
3.94378
6.25811
8.68847
11.2254
13.7593
16.2861
18.6716
21.0694
22.9901
25.9361
12.5364
14.826
17.9119
20.7524
23.1462
25.1513
27.1021
28.8792
30.5747
32.1634
33.6477
35.0423
36.3382
37.563
38.684
39.7698
40.7269
41.7711
42.5165
43.5523
26.648
30.0845
31.6945
33.7523
35.4353
37.0278
38.5304
39.8324
41.0237
42.0618
43.0115
43.8897
44.7081
45.5063
46.2707
47.0792
47.8334
48.7461
49.395
50.3585
84.2977
85.3249
84.0797
83.5102
81.9149
80.424
78.6342
76.5852
74.3541
72.3866
70.5717
68.9097
67.4412
66.1816
65.1408
64.3206
63.6948
63.2003
62.8542
62.3226
)
;

boundaryField
{
    outletWall
    {
        type            fixedValue;
        value           uniform 0;
    }
    fineWalls
    {
        type            zeroGradient;
    }
    fineFrontAndBack
    {
        type            zeroGradient;
    }
    fineplugLeft
    {
        type            cyclicAMI;
        value           nonuniform List<scalar> 
20
(
47.4513
48.2589
48.1813
48.7501
49.453
50.4438
51.5587
52.8294
54.2136
55.7169
57.3083
58.9761
60.6755
67.5093
68.6864
69.5577
70.9919
70.2056
66.9474
63.0116
)
;
    }
    fineplugRight
    {
        type            cyclicAMI;
        value           nonuniform List<scalar> 
20
(
46.739
47.6683
47.6644
48.3372
49.1282
50.2151
51.4218
52.7815
54.2448
55.817
57.4646
59.1727
60.9005
68.1783
69.4653
70.3264
71.7315
70.8995
67.6393
63.7644
)
;
    }
    inletOutletLeft
    {
        type            cyclicAMI;
        value           nonuniform List<scalar> 
20
(
47.4513
48.2589
48.1813
48.7501
49.453
50.4438
51.5587
52.8294
54.2136
55.7169
57.3083
58.9761
60.6755
67.5093
68.6864
69.5577
70.9919
70.2056
66.9474
63.0116
)
;
    }
    inletLeft
    {
        type            zeroGradient;
    }
    inletWallsLeft
    {
        type            zeroGradient;
    }
    inletFacesLeft
    {
        type            zeroGradient;
    }
    inletOutletRight
    {
        type            cyclicAMI;
        value           nonuniform List<scalar> 
20
(
46.739
47.6683
47.6644
48.3372
49.1282
50.2151
51.4218
52.7815
54.2448
55.817
57.4646
59.1727
60.9005
68.1783
69.4653
70.3264
71.7315
70.8995
67.6393
63.7644
)
;
    }
    inletRight
    {
        type            zeroGradient;
    }
    inletWallsRight
    {
        type            zeroGradient;
    }
    inletFacesRight
    {
        type            zeroGradient;
    }
}


// ************************************************************************* //
