/*--------------------------------*- C++ -*----------------------------------*\
| =========                 |                                                 |
| \\      /  F ield         | OpenFOAM: The Open Source CFD Toolbox           |
|  \\    /   O peration     | Version:  4.1                                   |
|   \\  /    A nd           | Web:      www.OpenFOAM.org                      |
|    \\/     M anipulation  |                                                 |
\*---------------------------------------------------------------------------*/
FoamFile
{
    version     2.0;
    format      ascii;
    class       surfaceScalarField;
    location    "12";
    object      phi;
}
// * * * * * * * * * * * * * * * * * * * * * * * * * * * * * * * * * * * * * //

dimensions      [0 3 -1 0 0 0 0];

internalField   nonuniform List<scalar> 
2360
(
-5825.06
-4297.81
-1527.25
-4297.81
-4297.81
-2433.31
-1864.5
-2433.31
-2433.31
-2433.31
31.8277
-2465.13
31.8247
31.8291
3248
-3216.17
3248
3247.99
7340.14
-4092.14
7340.14
7340.14
12354.8
-5014.64
12354.8
12354.8
12943.5
14578.4
16374.5
18012.8
19460
20757.3
17879.2
4086.82
18998.5
20045.6
21023.5
21934
22778.7
23558.4
24272.8
24922.1
25514.2
26074.9
26645.8
27251.3
27768
11700.7
16067.4
11700.7
11700.7
11700.7
1421.2
10279.5
1421.2
1421.2
1421.2
610.946
810.247
610.941
610.938
-2277.84
2888.77
-2277.84
-2277.84
-2277.84
-12884.3
10606.4
-12884.3
-12884.3
-12884.3
-28254.6
15370.3
-27732.4
-27125.7
-26553.5
-25991.5
-25398.6
-24749.6
-24036.5
-23259
-22417
-21509
-20533.1
-19487.5
-18369.2
-20630.1
3469.77
-19330
-17879.8
-16238.4
-14440.1
-12806.3
-12224.3
-12224.3
-12224.3
-6415.8
-5808.53
-6415.8
-6415.8
-2826.55
-3589.25
-2826.55
-2826.55
-185.411
-2641.14
-185.412
-185.413
2178.01
-2363.43
2178.01
2178.01
2178.01
4420.05
-2242.04
4420.05
4420.05
6936.57
-2516.52
-4154.75
527.369
-3174.41
-2203.62
-2675.63
-2932.7
-2564.05
1242.96
-2354.59
4234.07
-2074.81
6410
-1591.12
6315.12
-798.435
-2749.71
-679.36
-10558.2
-1024.32
-13390.2
-1022.86
-14649.5
69.3118
-13674.8
2731.17
-2014.45
3945.61
12778.1
4169.02
17973.8
3773.28
16470.5
3298.47
11542.4
3072.17
6138.73
-889.871
-3812.69
-458.799
-2821.32
-3194.99
-2260.48
-3493.53
-2441.61
1424.08
-2425.36
4217.82
-2280.82
6265.47
-1764.86
5799.16
-1466.07
-3048.5
-2217.52
-9806.79
-3217.22
-12390.5
-3424.12
-14442.6
-2079.42
-15019.5
1553.97
-5647.84
3445.49
10886.6
3738.2
17681.1
3427.74
16781
3118.56
11851.5
2847.08
6410.21
-284.836
-4797.19
-1274.13
-3589.79
-4402.39
-2115.38
-4967.95
-2172.65
1481.36
-2486.79
4531.96
-2536.45
6315.12
-2364.63
5627.35
-2733.39
-2679.74
-3936.67
-8603.51
-5142.33
-11184.9
-5420.13
-14164.8
-4072.24
-16367.3
-66.5475
-9653.53
2576.47
8243.57
3033.59
17224
2848.29
16966.3
2736.88
11962.9
2593.06
6554.03
-55.2001
-7453.93
-2920.3
-4628.75
-7227.56
-1888.05
-7708.66
-1753.89
1347.2
-2462.58
5240.65
-2825.08
6677.62
-3154.19
5956.46
-4264.89
-1569.03
-5886.78
-6981.63
-7292.89
-9778.75
-7725.75
-13732
-6459.49
-17633.6
-2277.27
-13835.8
1192.89
4773.41
1995.27
16421.6
2071.86
16889.7
2226.68
11808.1
2461.9
6318.81
-234.442
-7030.45
-5523.45
-3391.95
-10866.1
-879.602
-10221
-1154.8
1622.39
-2285.84
6371.69
-3101.98
7493.76
-3933.04
6787.51
-5806.87
304.799
-7811.4
-4977.1
-9308.65
-8281.5
-9939.1
-13101.5
-9077.35
-18495.4
-5474.15
-17439
-901.957
201.216
646.611
14873
1022.93
16513.4
1683.46
11147.6
2761.11
5241.16
-1062.57
-2006.35
-7080.3
-298.967
-12573.4
653.1
-11173.1
-349.874
2625.37
-1982.28
8004.1
-3280.98
8792.46
-4604
8110.53
-7120.23
2821.03
-9459.1
-2638.23
-10936.7
-6803.88
-11745.2
-12293
-11459.4
-18781.1
-8906.27
-19992.1
-3616.71
-5088.35
-1131.81
12388.1
-355.982
15737.6
877.918
9913.69
3677.83
2441.25
-3193.27
1636.12
-7174.44
1471.04
-12408.4
1186.44
-10888.5
198.094
3613.72
-1605.73
9807.92
-3282.81
10469.5
-5033.14
9860.86
-7959.3
5747.19
-10600.8
3.25188
-11963.3
-5441.33
-12760.5
-11495.9
-12982
-18559.7
-11644.6
-21329.5
-6847.65
-9885.28
-3501.19
9041.67
-2098.36
14334.7
331.276
7484.05
3448.98
-676.455
3725.48
2501.74
-7047.72
2045.17
-11951.8
1139.31
-9982.62
106.74
4646.29
-1331.57
11246.2
-3112.5
12250.5
-5120.72
11869.1
-8175.34
8801.81
-11025
2852.94
-12083.4
-4382.99
-12488.3
-11090.9
-13052.8
-17995.2
-13307.2
-21075.1
-10098.5
-13094
-5721.65
4664.85
-3232.62
11845.7
-3302.69
7554.12
-8420.95
4441.81
10674.8
2419.59
-6961.95
1876.62
-11408.8
374.303
-8480.3
-500.165
5520.75
-1319.19
12065.3
-2873.86
13805.1
-4913.23
13908.5
-7855.95
11744.5
-10568.3
5565.31
-10942
-4009.33
-10638.3
-11394.6
-11479.6
-17153.9
-13682.3
-18872.4
-13449
-13327.3
-9761.45
977.346
-7638.93
9723.19
-9710.62
9625.8
-12656.2
7387.34
8625.11
1416.89
-6999.58
694.715
-10686.6
-1171.31
-6614.27
-1537.19
5886.63
-1647.83
12175.9
-2707.68
14865
-4540.2
15741
-7185.39
14389.7
-9430.98
7810.9
-9009.36
-4430.95
-8095.82
-12308.1
-9157.47
-16092.3
-13076.6
-14953.3
-16165.1
-10238.8
-15525.7
337.902
-13811.5
8008.95
-12721
8535.35
-9746.02
4412.34
1767.87
-165.42
-7134.77
-1107.51
-9744.54
-2885.08
-4836.71
-2695.26
5696.82
-2274.17
11754.8
-2742.49
15333.3
-4170.24
17168.7
-6422.82
16642.3
-8338.43
9726.52
-7646.35
-5123.04
-6475.13
-13479.3
-7446.72
-15120.7
-11993
-10407
-16158.2
-6073.58
-16750.9
930.638
-15222.5
6480.53
-12134.4
5447.24
-7857.02
134.973
-5278.9
-1579.1
-6877.53
-2918.53
-8405.11
-4360.14
-3395.1
-3880.74
5217.42
-3130.64
11004.7
-3064.16
15266.8
-3968.79
18073.4
-5750.36
18423.9
-7449.49
11425.7
-6785.92
-5786.61
-5590.84
-14674.4
-6283.61
-14427.9
-10657.5
-6033.11
-15632.9
-1098.16
-17233.2
2530.89
-16806.8
6054.12
-15783.6
4424.04
-14289.7
-1358.87
-9289.14
-2888.37
-6129.91
-4530.82
-6762.66
-5626.42
-2299.49
-5035.1
4626.1
-4144.38
10114
-3689.94
14812.4
-4063.11
18446.5
-5261.46
19622.2
-6436.12
12600.3
-5540.36
-6682.37
-4435.05
-15779.7
-4549.83
-14313.1
-6484.39
-4098.55
-10081.2
2498.63
-11752
4201.75
-11329
5631.09
-10648.7
3743.72
-12236.3
228.711
-5458.04
-4160.28
-5041.15
-5869.42
-5053.52
-6650.94
-1517.97
-6066.55
4041.7
-5192.47
9239.9
-4534.71
14154.6
-4476.25
18388.1
-5035.2
20181.2
-5360.22
12925.3
-4068.42
-7974.17
-3317.24
-16530.9
-3359.42
-14271
-2316.94
-5141.03
-3632.99
3814.67
-5308.88
5877.64
-4363.53
4685.73
-1490.95
871.147
1347.33
-2609.57
-23.8857
-5315.24
-3751.94
-6951.9
-3416.86
-7492.18
-977.694
-6952.49
3502.01
-6152.68
8440.1
-5433.51
13435.5
-5092.09
18046.6
-5057.38
20146.5
-4386.17
12254.1
-2826.31
-9534.04
-2521.69
-16835.5
-2726.49
-14066.2
-267.024
-7600.49
1682.45
1865.2
1416.39
6143.7
1886.64
4215.48
2929.29
-171.501
3842.04
-3522.32
-1196.49
-6285.99
-2342.69
-7858.47
-1844.38
-8326.18
-509.986
-7876.97
3052.8
-7128.22
7691.35
-6407.5
12714.7
-5937.44
17576.6
-5401.71
19610.7
-3555.47
10407.9
-2014.09
-11075.4
-2080.23
-16769.4
-2011.64
-14134.8
-134.136
-9478
2961.49
-1230.43
4850.46
4254.73
5750.51
3315.43
5668.38
-89.3678
4810.84
-2664.78
-477.792
-6920.22
-863.388
-8574.79
-189.816
-9286.07
201.294
-9171.33
2938.06
-8623.88
7143.9
-8021.11
12112
-7473.7
17029.2
-6211.3
18348.3
-2863.53
7060.11
-1519.64
-12419.3
-1866.48
-16422.5
-1339.35
-14661.9
98.1786
-10915.5
2703.97
-3836.22
4770.19
2188.51
5642.52
2443.1
5207.53
345.623
4066.21
-1523.45
372.243
-6953.32
522.331
-8714.9
1571.76
-9894.74
1381.13
-10453.5
3496.78
-10503.8
7194.28
-10279.4
11887.5
-9548.22
16298
-7037.93
15838
-2468.15
2490.34
-1363.58
-13523.9
-1598.3
-16187.8
-827.709
-15432.5
304.4
-12047.6
2255
-5786.82
3787.35
656.161
4461.01
1769.44
4186.03
620.61
3314.78
-652.212
1221.89
-6469.96
1877.91
-8509.14
3610.94
-10174.5
3046.47
-11476.3
4798.63
-12324.8
8042.75
-12450.3
12013.1
-10927.4
14775
-6494.1
11404.8
-1988.25
-2015.51
-1524.36
-13987.8
-1248.93
-16463.2
-517.897
-16163.5
383.197
-12948.7
1727.42
-7131.05
2762.54
-378.956
3307.31
1224.67
3174.34
753.585
2610.98
-88.8578
1968.38
-4919.79
-6957.83
-8860.01
-10510.3
-11736
-11891.3
-9798.87
-5303.48
-2046.7
-1555.52
-998.313
-332.83
356.956
1079.24
1701.44
2046.98
2011.13
1848.8
-88.1761
-500.56
125.602
-1848.66
370.438
-2040.95
555.026
-1822.82
692.089
-1584.28
802.256
-1407.51
871.48
-1277.92
930.655
-1178.49
974.283
-1090.71
1002.77
-1006.39
1015.68
-923.393
1012.33
-841.301
992.59
-759.988
956.754
-678.593
904.733
-597.262
831.639
-518.999
725.929
-454.946
566.949
-411.954
336.034
-374.585
-180.657
-72.9439
-427.61
-125.438
-1796.17
-75.632
-2090.76
-8.21656
-1890.23
61.9921
-1654.48
136.032
-1481.54
218.281
-1360.17
297.081
-1257.29
366.627
-1160.25
423.824
-1063.58
467.417
-966.982
497.427
-871.306
515.18
-777.738
522.767
-686.176
521.838
-596.329
508.07
-505.227
467
-413.876
369.064
-314.017
195.664
-201.183
15.0071
72.301
-499.906
82.0305
-1805.89
138.968
-2147.69
217.308
-1968.57
299.794
-1736.96
384.4
-1566.15
466.731
-1442.49
543.36
-1333.91
609.579
-1226.47
661.485
-1115.49
696.043
-1001.54
711.059
-886.317
705.034
-771.71
677.353
-658.492
628.391
-547.364
558.719
-435.552
467.147
-322.302
342.002
-188.869
172.358
-31.5338
187.365
411.354
-911.257
579.755
-1974.29
595.09
-2163.02
601.606
-1975.08
648.745
-1784.1
725.185
-1642.58
812.185
-1529.49
892.974
-1414.7
959.112
-1292.6
1006.02
-1162.39
1031.72
-1027.23
1034.3
-888.894
1011.66
-749.07
961.523
-608.355
881.774
-467.612
769.875
-323.651
629.916
-182.34
447.029
-5.97908
232.36
183.14
419.725
595.16
-1506.41
820.786
-2199.92
770.727
-2112.96
722.296
-1926.65
751.781
-1813.58
824.352
-1715.15
908.607
-1613.74
980.691
-1486.78
1032.99
-1344.9
1062.34
-1191.74
1068.28
-1033.17
1047.25
-867.864
994.289
-696.103
904.392
-518.457
769.958
-333.175
576.495
-130.184
367.119
27.0405
227.057
134.09
83.3035
326.899
503.028
368.542
-1874.95
337.239
-2168.61
177.421
-1953.15
76.3751
-1825.6
29.7439
-1766.95
0.664199
-1686.07
-31.1558
-1581.92
-77.8452
-1440.09
-138.318
-1284.43
-209.232
-1120.83
-288.431
-953.967
-375.726
-780.568
-468.968
-602.858
-562.768
-424.654
-643.579
-252.362
-689.38
-84.38
-703.381
41.0447
-652.736
83.4479
-447.618
121.784
55.4101
-52.9938
-1821.96
-235.656
-1985.95
-404.304
-1784.5
-559.089
-1670.82
-719.714
-1606.32
-888.42
-1517.36
-1062.57
-1407.77
-1239.3
-1263.37
-1417.25
-1106.47
-1596.37
-941.711
-1775.97
-774.36
-1948.82
-607.717
-2099.15
-452.531
-2202.92
-320.885
-2222.14
-233.139
-2093.47
-213.052
-1783.95
-268.467
-1302.66
-397.848
-618.393
-562.478
-562.983
-234.016
-1587.95
-315.42
-1904.55
-408.918
-1691
-569.372
-1510.37
-760.001
-1415.7
-968.362
-1309.01
-1172.21
-1203.93
-1360.26
-1075.31
-1526.85
-939.881
-1671.41
-797.153
-1789.21
-656.557
-1868.94
-527.994
-1893.81
-427.656
-1843.28
-371.42
-1700.99
-375.429
-1451.73
-462.315
-1082.84
-637.354
-628.943
-851.743
-223.43
-967.991
-786.413
-68.7024
-1519.24
-15.9496
-1957.3
29.1073
-1736.05
31.9788
-1513.23
18.0586
-1401.77
-7.88857
-1283.06
-28.2204
-1183.59
-29.2496
-1074.28
-0.889855
-968.238
62.4083
-860.447
161.794
-755.939
292.231
-658.427
440.092
-575.514
586.965
-518.29
709.235
-497.698
771.191
-524.269
725.812
-591.976
547.7
-673.63
270.408
-690.699
-516.006
32.3339
-1551.58
87.6471
-2012.62
146.509
-1794.92
203.091
-1569.82
263.617
-1462.3
325.201
-1344.64
390.163
-1248.56
462.923
-1147.04
547.369
-1052.69
648.054
-961.134
764.738
-872.625
892.354
-786.042
1017.5
-700.658
1117.09
-617.88
1161.59
-542.208
1118.31
-480.983
966.437
-440.107
702.536
-409.731
368.147
-356.312
-147.859
113.683
-1665.26
158.76
-2057.69
200.65
-1836.81
254.931
-1624.1
321.751
-1529.12
386.118
-1409.01
452.125
-1314.56
515.446
-1210.36
576.406
-1113.65
632.502
-1017.23
682.403
-922.527
724.72
-828.359
758.329
-734.268
780.1
-639.652
782.593
-544.702
749.916
-448.308
661.58
-351.772
497.583
-245.735
260.795
-119.527
112.936
169.574
-1834.84
181.777
-2069.9
215.882
-1870.92
269.886
-1678.11
338.85
-1598.09
402.57
-1472.73
471.968
-1383.96
541.266
-1279.66
614.289
-1186.67
685.402
-1088.34
749.467
-986.594
797.672
-876.567
822
-758.598
816.283
-633.937
777.164
-505.586
701.66
-372.806
586.016
-236.13
422.982
-82.705
215.087
88.364
328.022
177.196
-2012.03
148.731
-2041.44
181.209
-1903.39
233.394
-1730.29
299.152
-1663.85
362.45
-1536.03
436.773
-1458.29
515.137
-1358.03
602.785
-1274.32
690.617
-1176.18
769.863
-1065.84
825.749
-932.454
849.212
-782.062
836.403
-621.13
784.063
-453.247
688.453
-277.198
542.9
-90.5794
352.89
107.303
179.334
261.917
507.356
93.0828
-2105.12
26.4465
-1974.8
29.4831
-1906.43
42.5639
-1743.37
63.1602
-1684.45
87.056
-1559.93
120.085
-1491.32
160.005
-1397.95
207.426
-1321.75
252.925
-1221.68
285.221
-1098.14
293.12
-940.356
278.824
-767.77
248.392
-590.702
199.096
-403.956
142.295
-220.405
112.844
-61.1374
61.331
158.808
-27.7837
351.026
479.572
-28.3698
-2076.75
-105.325
-1897.85
-154.476
-1857.28
-205.345
-1692.51
-255.542
-1634.25
-303.027
-1512.45
-351.701
-1442.65
-396.99
-1352.66
-442.289
-1276.45
-485.879
-1178.09
-528.529
-1055.49
-563.877
-905.01
-583.157
-748.493
-584.781
-589.079
-582.926
-405.814
-598.847
-204.487
-632.275
-27.7122
-607.476
134.008
-449.692
193.239
29.8807
-58.944
-2017.81
-123.185
-1833.61
-181.675
-1798.8
-249.886
-1624.3
-320.273
-1563.87
-394.377
-1438.35
-477.627
-1359.4
-566.125
-1264.17
-660.755
-1181.82
-749.488
-1089.36
-818.071
-986.91
-851.073
-872.01
-846.347
-753.22
-807.97
-627.459
-733.89
-479.896
-634.106
-304.273
-535.109
-126.71
-399.684
-1.41838
-246.607
40.1593
-216.726
-28.4713
-1989.34
-77.5875
-1784.49
-106.332
-1770.05
-131.544
-1599.09
-157.071
-1538.34
-175.387
-1420.03
-197.066
-1337.72
-217.55
-1243.69
-238.841
-1160.53
-252.07
-1076.13
-246.664
-992.317
-214.621
-904.055
-157.911
-809.931
-78.4946
-706.877
31.3562
-589.75
176.181
-449.101
322.562
-273.095
372.672
-51.5319
285.573
127.255
68.847
-132.652
-1856.69
-285.546
-1631.6
-399.623
-1655.98
-473.835
-1524.88
-537.012
-1475.16
-568.378
-1388.67
-585.289
-1320.81
-581.621
-1247.35
-563.208
-1178.94
-528.452
-1110.89
-477.033
-1043.74
-406.597
-974.492
-315.597
-900.932
-202.428
-820.047
-67.5879
-724.591
77.7379
-594.428
200.174
-395.533
255.828
-107.188
222.964
160.117
291.811
-199.612
-1657.07
-436.212
-1395
-687.45
-1404.74
-893.132
-1319.19
-1088.57
-1279.72
-1248.57
-1228.67
-1383.76
-1185.62
-1489.18
-1141.94
-1568.27
-1099.85
-1621.32
-1057.84
-1649.34
-1015.72
-1651.15
-972.69
-1624.09
-927.983
-1564.35
-879.792
-1465.6
-823.339
-1311.74
-748.294
-1073.3
-633.967
-728.02
-452.471
-346.545
-221.358
-54.7341
-682.075
-1102.08
-1531.82
-1876.01
-2180.73
-2434.4
-2645.02
-2811.96
-2936.81
-3019.65
-3060.37
-3058.06
-3011.04
-2915.84
-2764.17
-2537.47
-2196.44
-1673.91
-920.266
-682.085
1657.09
-1102.1
1395.02
-1531.85
1404.75
-1876.06
1319.21
-2180.8
1279.74
-2434.49
1228.69
-2645.13
1185.64
-2812.09
1141.96
-2936.97
1099.88
-3019.83
1057.86
-3060.57
1015.74
-3058.29
972.715
-3011.3
928.012
-2916.12
879.825
-2764.49
823.371
-2537.79
748.301
-2196.69
633.895
-1673.99
452.303
-920.211
221.221
54.7891
-199.633
1856.72
-436.251
1631.64
-687.509
1656.01
-893.209
1524.92
-1088.67
1475.21
-1248.68
1388.71
-1383.89
1320.85
-1489.33
1247.4
-1568.43
1178.98
-1621.49
1110.92
-1649.51
1043.77
-1651.31
974.52
-1624.27
900.966
-1564.54
820.098
-1465.82
724.652
-1311.97
594.452
-1073.51
395.437
-728.153
106.949
-346.639
-160.291
-291.85
-132.63
1989.36
-285.484
1784.49
-399.53
1770.06
-473.69
1599.08
-536.818
1538.34
-568.118
1420.01
-584.955
1337.69
-581.199
1243.64
-562.69
1160.48
-527.839
1076.08
-476.347
992.275
-405.864
904.04
-314.845
809.95
-201.681
706.937
-66.8873
589.862
78.2968
449.272
200.425
273.313
255.768
51.611
222.524
-127.043
-69.3254
-28.3577
2017.72
-77.3707
1833.51
-106.005
1798.7
-131.094
1624.17
-156.497
1563.74
-174.676
1438.19
-196.212
1359.23
-216.544
1263.98
-237.679
1181.61
-250.755
1089.15
-245.224
986.746
-213.116
871.935
-156.399
753.235
-76.9815
627.522
32.8983
479.986
177.784
304.39
324.181
126.922
373.997
1.79903
286.157
-39.1991
216.832
-58.8952
2076.61
-123.096
1897.71
-181.541
1857.15
-249.727
1692.36
-320.081
1634.1
-394.17
1512.28
-477.41
1442.47
-565.911
1352.48
-660.545
1276.25
-749.261
1177.87
-817.792
1055.28
-850.724
904.869
-845.943
748.456
-807.493
589.075
-733.264
405.759
-633.328
204.457
-534.13
27.7266
-398.55
-133.778
-245.411
-192.334
-28.5796
-28.5289
2105.14
-105.505
1974.69
-154.741
1906.38
-205.723
1743.34
-256.041
1684.41
-303.666
1559.91
-352.507
1491.31
-397.985
1397.96
-443.496
1321.76
-487.293
1221.67
-530.106
1098.09
-565.528
940.292
-584.809
767.737
-586.427
590.694
-584.606
403.939
-600.604
220.456
-634.092
61.216
-609
-158.871
-450.505
-350.828
-479.085
92.8624
2012.28
26.1298
2041.42
29.0383
1903.48
41.9731
1730.41
62.4074
1663.98
86.1455
1536.17
119.001
1458.46
158.748
1358.22
205.979
1274.53
251.28
1176.37
283.381
1065.99
291.143
932.531
276.814
782.068
246.431
621.078
197.244
453.128
140.702
277.001
111.675
90.2463
60.3453
-107.537
-28.4657
-262.014
-507.55
177.177
1835.1
148.608
2069.99
181.038
1871.04
233.179
1678.26
298.895
1598.26
362.159
1472.91
436.463
1384.15
514.815
1279.86
602.462
1186.88
690.284
1088.55
769.502
986.774
825.337
876.695
848.75
758.656
835.911
633.917
783.553
505.487
687.926
372.629
542.301
235.873
352.393
82.3713
179.134
-88.7529
-328.417
169.707
1665.4
181.844
2057.86
215.93
1836.96
269.94
1624.26
338.921
1529.29
402.659
1409.17
472.087
1314.73
541.422
1210.53
614.495
1113.81
685.662
1017.38
749.775
922.663
798.006
828.466
822.328
734.334
816.575
639.673
777.383
544.68
701.785
448.229
586.051
351.608
422.973
245.452
215.08
119.142
-113.336
113.849
1551.55
158.889
2012.82
200.735
1795.11
254.992
1570
321.803
1462.47
386.149
1344.82
452.136
1248.74
515.428
1147.24
576.359
1052.88
632.407
961.335
682.233
872.837
724.439
786.26
757.895
700.878
779.474
618.093
781.805
542.349
749.074
480.96
660.836
439.846
497.052
409.237
260.511
355.684
147.175
32.5269
1519.02
87.8323
1957.51
146.675
1736.27
203.313
1513.36
263.939
1401.85
325.651
1283.11
390.742
1183.65
463.608
1074.37
548.117
968.371
648.813
860.638
765.455
756.196
892.978
658.736
1017.83
576.03
1117.05
518.869
1161.19
498.213
1117.82
524.326
966.089
591.579
702.424
672.903
368.18
689.93
515.355
-68.3062
1587.32
-15.3649
1904.57
29.9543
1690.95
33.1626
1510.15
19.5967
1415.41
-5.97783
1308.68
-25.9403
1203.61
-26.6188
1075.04
2.0892
939.658
65.8227
796.898
165.855
656.157
297.179
527.406
446.024
427.18
593.541
371.347
715.646
376.104
776.567
463.403
729.664
638.482
549.983
852.583
271.38
968.533
786.735
-234.188
1821.51
-315.341
1985.72
-408.693
1784.3
-569.126
1670.58
-759.776
1606.06
-968.169
1517.08
-1172.01
1407.46
-1360.03
1263.06
-1526.53
1106.16
-1670.9
941.26
-1788.28
773.538
-1867.27
606.399
-1891.06
450.972
-1839.52
319.808
-1696.62
233.198
-1447.24
214.024
-1078.63
269.873
-625.775
399.725
-222.057
564.813
564.678
-53.7325
1875.24
-236.471
2168.45
-405.188
1953.02
-560.203
1825.59
-721.148
1767
-890.209
1686.13
-1064.7
1581.95
-1241.74
1440.1
-1420.02
1284.44
-1599.55
1120.78
-1779.71
953.699
-1953.23
779.919
-2104.08
601.816
-2207.82
423.549
-2226.21
251.585
-2096.6
84.4142
-1786.72
-40.0132
-1303.78
-83.2097
-618.421
-120.552
-53.743
368.435
1506.81
336.957
2199.93
177.065
2112.91
75.9138
1926.74
29.1395
1813.77
-0.104503
1715.38
-32.0961
1613.93
-78.9237
1486.93
-139.493
1345
-210.524
1191.81
-289.974
1033.15
-377.717
867.658
-471.559
695.654
-565.842
517.827
-646.788
332.526
-692.676
130.297
-706.659
-26.035
-655.598
-134.274
-449.101
-327.053
-502.844
596.408
910.396
822.779
1973.56
772.719
2162.97
724.072
1975.39
753.415
1784.43
825.926
1642.86
910.143
1529.71
982.191
1414.88
1034.46
1292.73
1063.77
1162.49
1069.63
1027.29
1048.38
888.908
994.992
749.039
904.53
608.287
769.549
467.505
576.308
323.536
368.068
182.203
227.728
6.06236
83.7762
-183.104
-419.068
413.495
496.899
583.041
1804.01
598.481
2147.53
604.834
1969.03
651.885
1737.38
728.297
1566.45
815.265
1442.75
895.958
1334.18
961.934
1226.76
1008.63
1115.79
1034.07
1001.85
1036.36
886.618
1013.4
771.995
962.941
658.749
882.874
547.569
770.73
435.679
630.632
322.298
447.802
188.89
233.1
31.5938
-185.968
74.468
422.43
84.4173
1794.06
140.69
2091.25
218.323
1891.4
300.245
1655.45
384.454
1482.24
466.543
1360.66
543.142
1257.58
609.485
1160.41
661.614
1063.66
696.454
967.006
711.769
871.301
706.035
777.729
678.597
686.187
629.763
596.403
560.02
505.422
468.15
414.167
342.674
314.365
172.482
201.784
-13.4853
-68.8143
491.243
-121.073
1846.32
-71.0891
2041.27
-3.09678
1823.41
67.9233
1584.43
142.901
1407.26
225.938
1277.62
304.993
1178.53
374.365
1091.04
431.04
1006.98
473.857
924.189
502.879
842.278
519.464
761.144
525.703
679.947
523.23
598.876
507.79
520.862
465.318
456.638
366.813
412.87
194.105
374.491
180.619
-90.6874
121.78
364.705
546.804
680.975
788.143
856.853
917.112
962.548
993.669
1009.87
1010.11
993.744
960.658
910.533
838.456
733.076
573.75
341.522
)
;

boundaryField
{
    outletWall
    {
        type            calculated;
        value           nonuniform List<scalar> 
60
(
6936.57
1445.52
-5912.43
-11067.5
-16074.8
-18197.2
-13992.5
-647.409
12582.6
14648.1
13735.2
10439.2
1957.03
-6798.81
-6689.79
-4443.52
-1354.54
2433.92
1223.27
-1266.53
3789.23
5114.39
5567.6
5440.92
4876.74
4026.03
3071.53
2140.75
1321.86
300.613
-1379.26
-2505.37
-2628.47
-1541.98
3563.2
9633.59
9100.1
5612.52
4798.86
4893.91
5825.06
2289.93
73.4679
789.434
879.133
-1001.15
-7853.33
-13638.5
-16829
-17020.4
-14479
-5272.29
6909.37
12682.6
12168.4
9268.43
6448.91
4948.65
5648.98
3008.46
)
;
    }
    fineWalls
    {
        type            calculated;
        value           uniform 0;
    }
    fineFrontAndBack
    {
        type            calculated;
        value           nonuniform List<scalar> 
960
(
4.83317e-13
2.66992e-12
7.80617e-13
1.04744e-12
6.13552e-12
7.77808e-13
-2.23962e-13
-3.6929e-13
-1.9075e-11
-2.39264e-11
-2.41729e-11
-4.97012e-12
3.46597e-12
2.53753e-12
5.85831e-12
9.03962e-13
9.66037e-13
1.73236e-12
2.90148e-13
8.22943e-14
7.20122e-14
-1.91302e-13
-2.72059e-13
-3.74293e-13
-4.29735e-13
-6.01551e-13
-9.6631e-12
-7.19593e-13
-7.25776e-13
-6.8912e-13
-5.97201e-13
-4.19727e-13
-1.2014e-13
2.84249e-13
7.17334e-13
1.0484e-12
1.12272e-12
8.54528e-13
4.65432e-13
-9.96017e-14
9.45313e-12
2.25437e-12
2.16918e-12
1.6139e-12
1.01983e-11
1.62759e-12
1.8072e-12
5.66078e-13
4.30042e-11
3.88751e-11
3.46225e-11
2.63924e-11
-5.86492e-14
-6.31603e-13
-1.42159e-12
-1.71779e-11
-4.214e-12
-4.67787e-12
-4.87703e-12
-2.17329e-11
-1.03599e-13
-6.71523e-13
-1.03467e-12
-1.28937e-12
-1.23165e-12
-9.4162e-13
-5.31391e-13
-1.4077e-13
1.77928e-13
3.85009e-13
4.82177e-13
5.21011e-13
5.32384e-13
5.5392e-12
4.54237e-13
3.01477e-13
2.85252e-13
2.30695e-13
2.33529e-13
2.29759e-14
1.06295e-12
1.06499e-12
9.08288e-12
1.29605e-12
1.95504e-12
1.28842e-11
2.0379e-12
2.10973e-12
2.67304e-12
-2.85826e-12
-5.66318e-13
1.65928e-11
1.0538e-11
1.68658e-11
1.94749e-11
5.45909e-11
2.03867e-12
-3.16792e-13
-4.14943e-12
-1.94849e-12
5.58275e-11
6.90718e-11
7.08602e-11
7.15827e-11
7.29477e-11
7.51241e-11
7.79279e-11
7.94294e-11
7.22629e-11
5.3897e-11
2.99425e-11
1.36084e-11
8.1514e-12
2.66959e-11
4.4627e-11
4.49278e-11
3.00845e-11
1.27353e-11
5.57168e-12
6.00108e-11
6.66649e-11
6.57403e-11
7.34313e-11
7.3392e-11
7.55893e-11
7.83955e-11
7.58165e-11
5.70405e-11
2.87969e-11
7.53092e-12
1.04756e-12
1.64791e-12
1.68799e-11
3.99738e-11
4.54483e-11
3.25332e-11
1.56729e-11
-5.81252e-13
5.3169e-11
3.44318e-11
3.45553e-11
7.34036e-11
7.36414e-11
7.648e-11
7.86624e-11
6.85444e-11
4.04373e-11
1.54178e-11
5.80251e-12
6.38062e-12
5.55318e-12
5.01436e-12
3.08944e-11
4.37764e-11
3.46311e-11
1.883e-11
1.75863e-13
7.20385e-12
-2.37826e-11
-1.42685e-11
5.35286e-11
7.61838e-11
7.70574e-11
7.83084e-11
5.75197e-11
2.46067e-11
7.36539e-12
6.1085e-12
8.10409e-12
5.92474e-12
2.77049e-12
2.17612e-11
3.8295e-11
3.48734e-11
2.11836e-11
1.12965e-11
-4.19369e-11
-4.63483e-11
-3.69826e-11
1.08783e-11
8.16462e-11
7.69103e-11
7.74577e-11
4.84847e-11
1.29906e-11
3.78483e-12
6.37826e-12
7.76672e-12
5.99887e-12
4.40791e-12
1.30327e-11
3.11561e-11
3.33189e-11
2.32546e-11
1.83514e-11
-3.40074e-11
-2.6711e-11
-2.95272e-11
-3.76895e-11
8.09515e-11
7.87313e-11
7.61611e-11
4.40499e-11
5.31275e-12
1.66337e-13
3.45239e-12
5.07884e-12
5.95947e-12
5.88826e-12
8.43035e-12
2.46879e-11
3.05442e-11
2.34798e-11
2.42017e-11
-1.85726e-11
-2.66993e-11
-4.24467e-11
-5.46869e-11
5.42765e-11
8.34429e-11
7.53326e-11
4.30921e-11
-1.66775e-13
-6.56481e-12
-3.29593e-12
3.89688e-13
5.51075e-12
8.49209e-12
9.81409e-12
2.00996e-11
2.82636e-11
2.50539e-11
1.08655e-11
-1.38452e-11
-4.41899e-11
-7.27466e-11
-7.21153e-11
1.14129e-11
8.49776e-11
7.75959e-11
4.49106e-11
-3.42154e-12
-1.68583e-11
-1.35866e-11
-6.72708e-12
3.79223e-12
1.08926e-11
1.18856e-11
1.85205e-11
1.93236e-11
-1.97477e-11
-3.63414e-11
-1.77079e-11
-7.58811e-11
-9.63814e-11
-7.92561e-11
-2.32583e-11
7.38086e-11
8.14356e-11
4.9342e-11
-3.70811e-12
-2.8941e-11
-2.67255e-11
-1.74954e-11
-4.20689e-13
1.37911e-11
8.6065e-12
7.19694e-12
-3.25692e-12
-2.9218e-11
-3.58172e-11
-5.39059e-11
-1.17538e-10
-9.15826e-11
-6.73904e-11
-3.80762e-11
5.19596e-11
8.54625e-11
5.60182e-11
-1.44327e-12
-4.00409e-11
-4.0572e-11
-3.0991e-11
-8.03108e-12
1.77563e-11
1.33556e-11
-3.21253e-12
-6.36952e-12
-1.11158e-11
-4.8847e-12
-1.25266e-10
-1.31765e-10
-5.30522e-11
-4.36827e-11
-3.54302e-11
3.22324e-11
8.28289e-11
6.40098e-11
3.88957e-12
-4.74243e-11
-5.06288e-11
-4.05094e-11
-1.72304e-11
1.61927e-11
3.97866e-11
3.44314e-11
3.25866e-11
3.34458e-11
4.01563e-11
-1.58799e-10
-9.70043e-11
-7.71595e-12
-1.38277e-11
-1.99916e-11
2.42148e-11
7.57891e-11
7.10207e-11
1.16039e-11
-5.01015e-11
-5.51041e-11
-4.54343e-11
-2.39781e-11
-2.16265e-12
1.5104e-11
2.13467e-11
1.354e-11
8.52564e-12
1.46213e-11
-1.49332e-10
-4.52846e-11
3.15652e-11
1.82427e-11
3.90262e-12
2.81792e-11
7.00682e-11
7.57085e-11
2.06174e-11
-4.8217e-11
-5.55359e-11
-4.79556e-11
-2.90903e-11
-9.1938e-12
-3.4816e-12
3.53217e-12
5.69176e-12
8.30602e-12
1.03671e-11
-1.20428e-10
-8.53682e-13
5.71426e-11
4.69316e-11
3.16524e-11
4.14132e-11
6.97904e-11
7.8458e-11
2.93714e-11
-4.34958e-11
-5.45413e-11
-4.80071e-11
-3.74208e-11
-1.29051e-11
-1.03804e-11
-6.89757e-12
-4.79173e-12
-1.16115e-11
-1.30158e-11
-8.87165e-11
2.66713e-11
6.49131e-11
6.27032e-11
5.46301e-11
5.79086e-11
7.40773e-11
7.93226e-11
3.53955e-11
-4.00884e-11
-5.33056e-11
-4.68279e-11
-4.22668e-11
-2.75483e-11
-1.69072e-11
-1.32069e-11
-1.41611e-11
-1.25744e-11
-1.27482e-11
-6.37857e-11
3.7383e-11
5.75085e-11
6.19037e-11
6.41895e-11
6.8166e-11
7.66313e-11
7.61998e-11
3.49882e-11
-4.2375e-11
-5.0384e-11
-4.66531e-11
-4.34782e-11
-3.55392e-11
-2.57549e-11
-2.02636e-11
-1.83587e-11
-1.37203e-11
-1.32113e-11
-4.9001e-11
3.5162e-11
4.34944e-11
5.18334e-11
6.04721e-11
6.7302e-11
7.23688e-11
6.66252e-11
2.46596e-11
-4.86694e-11
-4.67623e-11
-4.70881e-11
-4.40797e-11
-3.46708e-11
-2.96394e-11
-2.36997e-11
-1.97116e-11
-1.34146e-11
-1.19683e-11
-4.72453e-11
2.2101e-11
2.9233e-11
3.92773e-11
5.02576e-11
5.85962e-11
6.15928e-11
4.99038e-11
4.22817e-12
-4.94454e-11
-4.51142e-11
-4.72957e-11
-4.43513e-11
-3.3979e-11
-2.7798e-11
-2.16464e-11
-1.68786e-11
-1.11604e-11
-4.59472e-12
-5.58947e-11
9.49996e-12
1.82906e-11
2.74956e-11
3.95785e-11
4.8778e-11
4.84908e-11
2.8028e-11
-2.22248e-11
-4.43748e-11
-4.51946e-11
-4.72649e-11
-4.44642e-11
-3.31766e-11
-2.33925e-11
-1.72889e-11
-1.24776e-11
-7.38459e-12
-3.78755e-12
-9.57778e-11
-2.57375e-11
-1.0519e-12
9.8953e-12
1.93473e-11
2.67242e-11
2.33663e-11
-1.75067e-13
-3.58167e-11
-4.18231e-11
-4.52751e-11
-4.72411e-11
-4.44849e-11
-3.24732e-11
-1.89209e-11
-1.27871e-11
-7.65246e-12
-3.57226e-12
-4.86122e-13
-4.83317e-13
-2.66992e-12
-7.80617e-13
-1.04744e-12
-6.13552e-12
-7.77808e-13
2.23962e-13
3.6929e-13
1.9075e-11
2.39264e-11
2.41729e-11
4.97012e-12
-3.46597e-12
-2.53753e-12
-5.85831e-12
-9.03962e-13
-9.66037e-13
-1.73236e-12
-2.90148e-13
-8.22943e-14
-7.20122e-14
1.91302e-13
2.72059e-13
3.74293e-13
4.29735e-13
6.01551e-13
9.6631e-12
7.19593e-13
7.25776e-13
6.8912e-13
5.97201e-13
4.19727e-13
1.2014e-13
-2.84249e-13
-7.17334e-13
-1.0484e-12
-1.12272e-12
-8.54528e-13
-4.65432e-13
9.96017e-14
-9.45313e-12
-2.25437e-12
-2.16918e-12
-1.6139e-12
-1.01983e-11
-1.62759e-12
-1.8072e-12
-5.66078e-13
-4.30042e-11
-3.88751e-11
-3.46225e-11
-2.63924e-11
5.86492e-14
6.31603e-13
1.42159e-12
1.71779e-11
4.214e-12
4.67787e-12
4.87703e-12
2.17329e-11
1.03599e-13
6.71523e-13
1.03467e-12
1.28937e-12
1.23165e-12
9.4162e-13
5.31391e-13
1.4077e-13
-1.77928e-13
-3.85009e-13
-4.82177e-13
-5.21011e-13
-5.32384e-13
-5.5392e-12
-4.54237e-13
-3.01477e-13
-2.85252e-13
-2.30695e-13
-2.33529e-13
-2.29759e-14
-1.06295e-12
-1.06499e-12
-9.08288e-12
-1.29605e-12
-1.95504e-12
-1.28842e-11
-2.0379e-12
-2.10973e-12
-2.67304e-12
2.85826e-12
5.66318e-13
-1.65928e-11
-1.0538e-11
-1.68658e-11
-1.94749e-11
-5.45909e-11
-2.03867e-12
3.16792e-13
4.14943e-12
1.94849e-12
-5.58275e-11
-6.90718e-11
-7.08602e-11
-7.15827e-11
-7.29477e-11
-7.51241e-11
-7.79279e-11
-7.94294e-11
-7.22629e-11
-5.3897e-11
-2.99425e-11
-1.36084e-11
-8.1514e-12
-2.66959e-11
-4.4627e-11
-4.49278e-11
-3.00845e-11
-1.27353e-11
-5.57168e-12
-6.00108e-11
-6.66649e-11
-6.57403e-11
-7.34313e-11
-7.3392e-11
-7.55893e-11
-7.83955e-11
-7.58165e-11
-5.70405e-11
-2.87969e-11
-7.53092e-12
-1.04756e-12
-1.64791e-12
-1.68799e-11
-3.99738e-11
-4.54483e-11
-3.25332e-11
-1.56729e-11
5.81252e-13
-5.3169e-11
-3.44318e-11
-3.45553e-11
-7.34036e-11
-7.36414e-11
-7.648e-11
-7.86624e-11
-6.85444e-11
-4.04373e-11
-1.54178e-11
-5.80251e-12
-6.38062e-12
-5.55318e-12
-5.01436e-12
-3.08944e-11
-4.37764e-11
-3.46311e-11
-1.883e-11
-1.75863e-13
-7.20385e-12
2.37826e-11
1.42685e-11
-5.35286e-11
-7.61838e-11
-7.70574e-11
-7.83084e-11
-5.75197e-11
-2.46067e-11
-7.36539e-12
-6.1085e-12
-8.10409e-12
-5.92474e-12
-2.77049e-12
-2.17612e-11
-3.8295e-11
-3.48734e-11
-2.11836e-11
-1.12965e-11
4.19369e-11
4.63483e-11
3.69826e-11
-1.08783e-11
-8.16462e-11
-7.69103e-11
-7.74577e-11
-4.84847e-11
-1.29906e-11
-3.78483e-12
-6.37826e-12
-7.76672e-12
-5.99887e-12
-4.40791e-12
-1.30327e-11
-3.11561e-11
-3.33189e-11
-2.32546e-11
-1.83514e-11
3.40074e-11
2.6711e-11
2.95272e-11
3.76895e-11
-8.09515e-11
-7.87313e-11
-7.61611e-11
-4.40499e-11
-5.31275e-12
-1.66337e-13