/*--------------------------------*- C++ -*----------------------------------*\
| =========                 |                                                 |
| \\      /  F ield         | OpenFOAM: The Open Source CFD Toolbox           |
|  \\    /   O peration     | Version:  4.1                                   |
|   \\  /    A nd           | Web:      www.OpenFOAM.org                      |
|    \\/     M anipulation  |                                                 |
\*---------------------------------------------------------------------------*/
FoamFile
{
    version     2.0;
    format      ascii;
    class       volVectorField;
    location    "12";
    object      U;
}
// * * * * * * * * * * * * * * * * * * * * * * * * * * * * * * * * * * * * * //

dimensions      [0 1 -1 0 0 0 0];

internalField   nonuniform List<vector> 
1280
(
(3.49281e-16 -1.91056 -0.920078)
(4.51304e-16 -1.71042 -1.04454)
(5.64131e-16 -1.54143 -0.748813)
(7.56961e-16 -1.34557 -0.846204)
(1.04279e-15 -1.39151 -1.2837)
(5.62102e-16 -0.933469 -0.996526)
(-1.61851e-16 -0.869585 -1.19019)
(-2.29631e-16 -0.566894 -1.26436)
(-3.53995e-15 -0.581598 -1.81797)
(-3.37076e-14 -1.27667 -1.11641)
(-3.38958e-14 -0.112575 -1.15988)
(-6.73192e-16 0.440845 -2.39255)
(2.49764e-15 0.932244 -1.88462)
(1.8338e-15 1.23167 -1.51717)
(1.00823e-15 1.82642 -2.93007)
(6.5327e-16 2.1513 -2.31748)
(6.98129e-16 2.56396 -1.88572)
(2.94431e-16 3.39371 -3.95123)
(2.09682e-16 3.69285 -2.58482)
(5.94719e-17 3.97941 -4.05479)
(2.95435e-16 3.9522 -1.73434)
(-7.84827e-16 4.26991 5.32143)
(-1.11614e-15 3.91199 9.35302)
(-1.53556e-15 4.19691 10.8816)
(-1.76301e-15 4.41439 11.2325)
(-2.4679e-15 4.86997 11.2139)
(-2.03702e-15 4.2733 8.07218)
(-2.95218e-15 8.3886 12.5876)
(-2.97754e-15 8.43601 12.3732)
(-2.82716e-15 8.4708 12.0612)
(-2.45006e-15 8.49946 11.798)
(-1.72196e-15 8.5231 11.6535)
(-4.92884e-16 8.54377 11.6223)
(1.16615e-15 8.53783 11.6388)
(2.94291e-15 8.5222 11.6483)
(4.30113e-15 8.45662 11.7026)
(4.60603e-15 8.41705 12.0134)
(3.50576e-15 8.25043 12.6643)
(1.90947e-15 8.24104 13.8616)
(-4.08622e-16 7.90545 14.1534)
(1.64545e-15 9.73347 15.5012)
(1.81074e-15 5.36242 10.3493)
(1.74231e-15 4.00802 9.73027)
(1.30107e-15 3.05533 8.96118)
(2.01923e-15 1.7021 7.33857)
(1.3073e-15 0.97333 3.88655)
(1.45157e-15 0.37548 3.78858)
(4.54681e-16 -0.0731989 4.34089)
(9.08646e-15 -1.24938 -0.649241)
(3.30121e-14 0.752916 -0.924464)
(2.78092e-14 -0.282637 -0.221965)
(4.59398e-15 1.03665 0.655253)
(-4.71078e-17 -0.150087 4.7033)
(-5.07312e-16 -0.679578 4.23773)
(-1.14184e-15 -1.26477 4.31604)
(-2.99006e-15 -2.08398 7.80057)
(-3.38128e-15 -3.41396 9.16384)
(-3.75732e-15 -4.41324 9.95307)
(-3.91729e-15 -5.79844 10.5089)
(-3.93723e-15 -10.0893 15.4836)
(-4.2502e-16 -8.07398 14.0479)
(-2.75496e-15 -8.41673 13.6497)
(-4.24478e-15 -8.42026 12.3932)
(-5.28973e-15 -8.584 11.6818)
(-5.05292e-15 -8.61435 11.3104)
(-3.86306e-15 -8.67042 11.192)
(-2.18007e-15 -8.67333 11.1243)
(-5.77517e-16 -8.66626 11.0701)
(7.29962e-16 -8.63414 11.0991)
(1.57952e-15 -8.60382 11.2836)
(1.97816e-15 -8.57447 11.6213)
(2.13748e-15 -8.54453 12.0267)
(2.18414e-15 -8.507 12.3326)
(1.16768e-15 -4.27497 7.90872)
(1.86354e-15 -4.79432 11.408)
(1.23683e-15 -4.34029 11.4445)
(1.17026e-15 -4.12703 11.0782)
(9.4644e-16 -3.85501 9.49062)
(9.58068e-16 -4.2271 5.33977)
(9.426e-17 -3.91402 -1.86827)
(7.68169e-16 -3.9984 -4.3148)
(7.69643e-16 -3.59162 -3.03382)
(1.54372e-15 -2.98086 -4.61097)
(9.3662e-16 -2.29733 -1.83697)
(1.41286e-15 -1.83416 -2.27253)
(2.30357e-15 -1.5715 -2.86141)
(1.5348e-15 -1.09457 -1.46794)
(1.58671e-15 -0.789841 -1.74878)
(3.30453e-16 -0.39083 -2.25996)
(-1.93987e-15 -0.242844 -1.27735)
(-2.83539e-16 0.0158462 -1.49479)
(4.21533e-15 0.375053 -2.00689)
(7.82043e-15 0.49546 -1.44378)
(1.21885e-14 0.770053 -1.37635)
(1.4074e-14 0.878141 -1.12444)
(9.27825e-15 1.3953 -1.6751)
(1.47329e-15 1.36062 -1.30228)
(-2.07368e-16 1.64677 -1.18464)
(-7.66316e-16 1.84481 -1.69491)
(-1.40812e-15 2.26556 -1.72939)
(6.20306e-15 -0.422455 4.06023)
(7.67465e-15 0.450968 2.90944)
(7.87336e-15 0.817879 2.32735)
(7.95364e-15 -0.432053 2.17305)
(8.1053e-15 -1.46271 2.08781)
(8.34712e-15 -2.21088 1.84708)
(8.65865e-15 -2.27581 1.60044)
(8.82549e-15 0.681234 0.991811)
(8.02921e-15 3.52843 0.415579)
(5.98855e-15 4.58733 0.689817)
(3.32695e-15 4.89434 1.01157)
(1.51205e-15 4.27258 0.718189)
(9.05711e-16 -0.187617 -1.15589)
(2.96622e-15 -4.48632 -3.03132)
(4.95856e-15 -6.00034 -3.6143)
(4.99198e-15 -5.36962 -3.35316)
(3.34272e-15 -3.72604 -2.93137)
(1.41503e-15 -1.99485 -2.55106)
(6.19075e-16 0.430417 -2.56801)
(6.66786e-15 0.0434389 3.92996)
(7.40721e-15 0.981373 2.54288)
(7.30447e-15 1.08518 2.03895)
(8.15904e-15 -0.409859 1.88613)
(8.15466e-15 -1.38294 2.09906)
(8.39881e-15 -2.08598 1.97888)
(8.71061e-15 -1.93635 1.79705)
(8.42405e-15 1.37694 1.14584)
(6.33783e-15 3.49469 1.3503)
(3.19965e-15 4.3454 2.31993)
(8.36769e-16 4.87225 3.03237)
(1.16395e-16 4.79866 2.68338)
(1.83101e-16 1.27122 0.585108)
(1.87554e-15 -4.10771 -2.73937)
(4.44153e-15 -6.02902 -3.26141)
(5.04981e-15 -5.57683 -3.00598)
(3.6148e-15 -3.9199 -2.70186)
(1.74143e-15 -2.08925 -2.46457)
(-6.45836e-17 0.158352 -2.19991)
(5.90766e-15 0.283814 4.61305)
(3.82576e-15 1.1244 3.48624)
(3.83948e-15 1.25636 2.37392)
(8.15595e-15 -0.490944 1.38165)
(8.18237e-15 -1.42489 2.08951)
(8.49778e-15 -2.07283 2.10382)
(8.74027e-15 -1.87702 2.09575)
(7.61605e-15 0.959812 1.899)
(4.49304e-15 3.09377 2.66268)
(1.71309e-15 3.93822 3.88086)
(6.44723e-16 4.76725 4.67707)
(7.08958e-16 5.20744 4.32635)
(6.1702e-16 2.56068 2.47605)
(5.57151e-16 -3.14988 -1.99178)
(3.43271e-15 -5.8301 -2.66161)
(4.86404e-15 -5.65185 -2.45383)
(3.8479e-15 -3.99881 -2.2894)
(2.09222e-15 -2.17319 -2.21923)
(1.95404e-17 0.0274029 -2.01764)
(8.00428e-16 0.544957 7.55139)
(-2.64251e-15 1.76833 4.94179)
(-1.58539e-15 2.02173 2.65415)
(5.94763e-15 -0.506034 0.786033)
(8.46487e-15 -1.60047 1.92762)
(8.56194e-15 -2.13788 2.23173)
(8.70093e-15 -1.90132 2.43195)
(6.39107e-15 0.783007 2.90985)
(2.73408e-15 2.65146 4.18311)
(8.18377e-16 3.52007 5.62278)
(6.78722e-16 4.67263 6.51512)
(9.00454e-16 5.70016 6.29698)
(6.58304e-16 4.0055 4.63705)
(3.07833e-16 -2.21145 -0.570438)
(2.41791e-15 -5.62347 -1.7555)
(4.255e-15 -5.66119 -1.70344)
(3.87482e-15 -3.98533 -1.74911)
(2.35374e-15 -2.2062 -1.88133)
(1.25516e-15 0.0765169 -2.16647)
(-4.65965e-15 1.45487 8.02222)
(-5.14981e-15 3.13615 3.76395)
(-4.10917e-15 3.09669 1.73387)
(1.2087e-15 -0.585785 0.141793)
(9.0718e-15 -1.90207 1.49641)
(8.54559e-15 -2.3205 2.35988)
(8.60641e-15 -2.08179 2.75871)
(5.38719e-15 0.270107 3.88886)
(1.4434e-15 2.00799 5.75441)
(4.20537e-16 3.01015 7.27723)
(7.08696e-16 4.48749 8.21665)
(8.62968e-16 6.06602 8.27473)
(6.66541e-16 5.26807 7.06393)
(4.89768e-16 -1.11648 2.11321)
(1.44808e-15 -5.31379 -0.710178)
(3.46179e-15 -5.60647 -0.611486)
(3.7021e-15 -3.88755 -1.10522)
(2.58385e-15 -1.94062 -1.57447)
(2.03904e-15 -0.0592986 -3.07186)
(-3.7786e-15 2.25777 2.9838)
(-2.96789e-15 4.11728 0.418704)
(-3.2808e-15 3.72899 -0.0686147)
(-4.18773e-15 -0.912335 -0.649157)
(8.99462e-15 -2.36241 0.97217)
(8.74792e-15 -2.67823 2.36415)
(8.46235e-15 -2.44029 3.06366)
(4.89444e-15 -0.487031 4.67473)
(5.90305e-16 1.28908 7.15794)
(1.84819e-17 2.51902 8.63758)
(3.83599e-16 4.24948 9.57231)
(5.64316e-16 6.26245 9.93241)
(6.62164e-16 6.31527 9.32998)
(6.54252e-16 0.823525 5.46107)
(9.36706e-16 -4.57553 0.702046)
(2.7431e-15 -5.41487 0.852671)
(3.3938e-15 -3.57497 -0.298527)
(2.60886e-15 -1.72014 -1.07832)
(2.68907e-15 0.666175 -5.02621)
(-2.06362e-15 2.42504 -1.2809)
(-2.96659e-15 4.2404 -1.39883)
(-4.7163e-15 3.75624 -1.11855)
(-6.07633e-15 -0.827706 -0.850072)
(6.03072e-15 -2.9798 0.511077)
(9.27144e-15 -3.18892 2.17865)
(8.37029e-15 -2.96216 3.27308)
(4.78801e-15 -1.40886 5.14666)
(-1.85305e-17 0.46717 8.11399)
(-7.29423e-16 2.03264 9.57729)
(-3.66214e-16 3.95657 10.3585)
(4.32986e-17 6.26103 10.8371)
(6.12306e-16 6.9893 10.894)
(9.43566e-16 2.59558 8.52822)
(1.09045e-15 -3.6313 3.04904)
(2.23329e-15 -5.08811 2.44017)
(3.1404e-15 -3.00407 0.951277)
(2.78376e-15 0.600932 -1.66311)
(1.20727e-15 2.49926 -3.72808)
(-1.53835e-15 2.35643 -2.20077)
(-4.90999e-15 4.0449 -1.94069)
(-8.08295e-15 3.56006 -1.4365)
(-8.01281e-15 -1.30653 -0.531673)
(1.2681e-15 -3.55024 0.332576)
(9.44195e-15 -3.78922 1.8918)
(8.62177e-15 -3.60637 3.29155)
(4.99006e-15 -2.42128 5.25196)
(-3.80172e-16 -0.448553 8.421)
(-1.87315e-15 1.60321 9.93341)
(-1.50962e-15 3.7225 10.2314)
(-7.47453e-16 6.11875 10.4982)
(4.21359e-16 7.22666 11.2892)
(1.21029e-15 4.06847 10.9945)
(1.32063e-15 -2.42503 5.93853)
(2.05784e-15 -4.47746 3.31421)
(2.14707e-15 -2.14165 1.93614)
(-2.19419e-15 -0.651438 3.66728)
(-4.03794e-15 -5.28238 10.1607)
(-1.96754e-15 2.33421 -2.11081)
(-8.43123e-15 3.90862 -1.91922)
(-1.0709e-14 3.16707 -1.05362)
(-8.80623e-15 -1.6544 0.27737)
(-2.58426e-15 -3.93937 0.528946)
(8.20095e-15 -4.3716 1.67056)
(9.0484e-15 -4.30189 3.11957)
(5.48245e-15 -3.43981 5.06329)
(-4.12013e-16 -1.41586 8.12939)
(-3.21566e-15 1.32905 9.41084)
(-2.9695e-15 3.68339 8.88442)
(-1.94393e-15 5.87477 8.74128)
(-4.67432e-17 6.81098 10.3818)
(1.53235e-15 4.72054 12.5719)
(9.56278e-16 -0.589752 9.90442)
(7.99661e-16 -3.42572 6.14237)
(-3.6188e-16 -2.85671 6.53559)
(-3.24644e-15 -2.32507 9.90525)
(-3.97969e-15 -3.0119 10.6357)
(-5.98955e-15 2.30756 -1.18985)
(-1.30598e-14 3.707 -1.17417)
(-1.01758e-14 2.53352 0.276512)
(-7.48782e-15 -1.97763 1.45305)
(-4.23069e-15 -4.08214 1.09595)
(5.77329e-15 -4.82294 1.64292)
(9.5156e-15 -4.96687 2.86936)
(6.22425e-15 -4.38691 4.67851)
(-1.60364e-16 -2.26589 7.44153)
(-4.44899e-15 1.343 8.16158)
(-4.50801e-15 3.89648 6.93105)
(-3.47269e-15 5.53872 6.43809)
(-8.92342e-16 5.73477 8.80503)
(1.97292e-15 4.03851 13.1065)
(1.65843e-15 -0.155881 13.8834)
(-3.56947e-16 -2.99929 11.8738)
(-7.07724e-16 -3.43552 11.1312)
(-1.23509e-15 -2.51332 10.1354)
(-5.42744e-16 -1.70738 5.60804)
(-1.39184e-14 2.36317 0.178448)
(-1.46405e-14 3.44561 0.131044)
(-5.89469e-15 1.85758 1.99952)
(-4.85364e-15 -1.93622 2.58271)
(-3.93669e-15 -4.01272 1.90308)
(3.58138e-15 -5.07912 1.87121)
(9.12066e-15 -5.52506 2.6981)
(7.1122e-15 -5.21282 4.22028)
(4.32175e-16 -2.95039 6.65482)
(-5.26936e-15 1.58223 7.11982)
(-5.62542e-15 4.27902 5.69068)
(-4.50105e-15 5.17045 4.96692)
(-1.91449e-15 4.25455 7.42324)
(1.79919e-15 2.79557 12.6583)
(4.42074e-15 -0.103598 14.3118)
(3.82571e-15 -2.37552 13.5555)
(3.62074e-15 -2.28056 11.8317)
(3.71621e-15 -0.518195 8.40308)
(4.46181e-15 0.493127 3.9856)
(-1.76444e-14 2.38838 1.03715)
(-1.07783e-14 3.06057 1.63361)
(-8.57328e-16 1.33026 3.46562)
(-1.53641e-15 -1.83891 3.62704)
(-2.22128e-15 -3.8101 2.82765)
(2.69054e-15 -5.13842 2.37187)
(8.42101e-15 -5.91953 2.73444)
(7.89119e-15 -5.89275 3.83418)
(1.28932e-15 -3.55172 5.92837)
(-5.56683e-15 1.82298 6.39689)
(-6.12268e-15 4.68917 4.93685)
(-5.04825e-15 4.86702 4.25837)
(-2.66423e-15 2.59299 6.15942)
(-2.40295e-16 1.10442 11.6803)
(1.67822e-15 -0.556774 14.429)
(2.37185e-15 -1.93851 14.3092)
(1.50445e-15 -1.4231 13.7124)
(9.47293e-16 0.257837 12.6658)
(1.62459e-15 1.97997 10.6081)
(-1.65924e-14 2.20719 1.74283)
(-5.03162e-15 2.53823 3.09028)
(3.50724e-15 0.904602 4.6528)
(2.02697e-15 -1.65552 4.59199)
(4.33625e-16 -3.52598 3.7875)
(3.13102e-15 -5.03858 3.10304)
(7.78536e-15 -6.12927 3.04798)
(8.41206e-15 -6.39858 3.66365)
(2.29082e-15 -4.06739 5.28054)
(-5.35745e-15 2.04506 5.41429)
(-6.17066e-15 5.08386 3.76846)
(-5.3284e-15 4.76273 3.541)
(-3.23226e-15 1.37346 3.88064)
(-1.02153e-15 -0.307593 7.08308)
(-3.86845e-16 -1.1264 9.74144)
(3.92463e-16 -2.05507 9.92778)
(6.32418e-16 -1.28301 8.97575)
(9.22891e-16 1.28827 8.71902)
(1.1519e-15 5.51393 11.3513)
(-1.33809e-14 1.88502 2.54751)
(-9.48535e-17 1.9616 4.37242)
(6.34918e-15 0.598096 5.5704)
(5.21462e-15 -1.45429 5.41248)
(3.51694e-15 -3.22375 4.69083)
(4.60146e-15 -4.83791 3.94993)
(7.75449e-15 -6.16824 3.61195)
(8.71755e-15 -6.6902 3.77899)
(3.26349e-15 -4.34977 4.76244)
(-4.83287e-15 2.39896 4.22232)
(-6.06014e-15 5.41858 2.41926)
(-5.33412e-15 4.79666 3.07663)
(-4.15787e-15 1.3584 2.29528)
(-1.4339e-15 -1.35664 1.69704)
(-1.15338e-15 -1.62096 4.43741)
(-7.66396e-16 -1.59714 4.60317)
(-5.32414e-16 -0.981695 2.74644)
(-1.29017e-15 -0.785211 -0.269164)
(-1.4462e-15 -1.86119 -2.51003)
(-9.85739e-15 1.48075 3.37209)
(2.96348e-15 1.40463 5.43347)
(7.21256e-15 0.407772 6.29721)
(6.96703e-15 -1.24928 6.10909)
(6.07001e-15 -2.94056 5.47551)
(6.43429e-15 -4.60252 4.76928)
(8.23082e-15 -6.09603 4.29415)
(8.81362e-15 -6.77612 4.12205)
(3.93284e-15 -4.30592 4.40405)
(-4.45427e-15 2.88055 3.0458)
(-5.92284e-15 5.5908 1.46013)
(-5.2031e-15 4.72294 2.74613)
(-4.69631e-15 2.17184 1.64458)
(-3.06093e-15 -1.21307 -1.34584)
(-1.87858e-15 -2.28246 -1.16201)
(-1.46743e-15 -1.53143 -0.946369)
(-1.57345e-15 0.132439 -2.12271)
(-1.39715e-15 1.49443 -2.9422)
(-1.41647e-15 1.04242 -3.98441)
(-7.0873e-15 1.01479 4.10645)
(4.15366e-15 0.842059 6.27664)
(6.38984e-15 0.219182 6.95844)
(6.87818e-15 -1.09933 6.85532)
(7.13216e-15 -2.6919 6.27399)
(7.574e-15 -4.35514 5.60008)
(8.51459e-15 -5.93133 5.09066)
(8.46664e-15 -6.65601 4.74226)
(3.88757e-15 -3.90402 4.28292)
(-4.70833e-15 3.4146 1.85249)
(-5.59823e-15 5.63288 1.27798)
(-5.18368e-15 4.66289 2.22067)
(-4.83091e-15 2.88964 1.02523)
(-3.9488e-15 -0.0857576 -1.0656)
(-2.86166e-15 -1.83187 -3.4796)
(-2.25152e-15 -1.35272 -4.48084)
(-2.03986e-15 -0.0510872 -5.10277)
(-1.52448e-15 0.953643 -4.39698)
(-1.46792e-15 0.0796057 -3.84592)
(-5.44456e-15 0.558983 4.59397)
(3.90689e-15 0.404875 6.82132)
(4.83271e-15 0.137652 7.5951)
(5.75927e-15 -0.918913 7.83468)
(6.71912e-15 -2.42127 7.45657)
(7.478e-15 -4.11685 6.91352)
(8.04098e-15 -5.79706 6.46592)
(7.4028e-15 -6.43956 5.94343)
(2.73995e-15 -3.0876 4.34286)
(-5.40771e-15 3.92139 0.703121)
(-5.19581e-15 5.54974 1.60344)
(-5.23201e-15 4.76982 1.55426)
(-4.89775e-15 3.44571 0.593531)
(-3.85232e-15 0.960545 -0.906105)
(-3.29326e-15 -0.998759 -3.32168)
(-2.6333e-15 -0.927357 -4.57855)
(-2.19018e-15 -0.0243976 -4.83586)
(-1.49051e-15 0.708126 -3.86983)
(-1.32981e-15 0.108022 -3.01621)
(-5.24948e-15 -0.0183394 4.69729)
(2.45567e-15 -0.32851 6.78328)
(3.24812e-15 -0.32551 7.83658)
(4.36414e-15 -1.07834 8.6237)
(5.58418e-15 -2.36093 8.80635)
(6.51069e-15 -3.95243 8.70045)
(6.84365e-15 -5.52834 8.44083)
(5.54487e-15 -5.76319 7.45228)
(4.69797e-16 -1.70244 4.0983)
(-5.49393e-15 4.34976 0.359332)
(-5.01269e-15 5.39102 1.70115)
(-5.25508e-15 4.99958 1.01327)
(-4.92793e-15 3.83752 0.29689)
(-3.77545e-15 1.66853 -0.85919)
(-3.08867e-15 -0.403917 -2.6868)
(-2.40515e-15 -0.67169 -3.6366)
(-1.8754e-15 -0.170602 -3.82637)
(-1.24004e-15 0.336467 -3.15735)
(-5.10524e-16 -0.293632 -2.39998)
(-6.21052e-15 -0.304785 4.30479)
(1.05555e-15 -0.668604 6.40857)
(2.03229e-15 -0.545655 7.82516)
(3.05506e-15 -1.21199 9.11577)
(4.39762e-15 -2.41016 10.0199)
(5.41978e-15 -3.98752 10.521)
(5.38787e-15 -5.41487 10.2229)
(3.11423e-15 -4.86072 7.9903)
(-2.46943e-15 0.111107 2.63387)
(-4.93053e-15 4.68107 0.980106)
(-5.02162e-15 5.40539 1.40893)
(-5.25165e-15 5.25582 0.709915)
(-4.94047e-15 4.13263 0.0983198)
(-3.68629e-15 2.13227 -0.747758)
(-2.59917e-15 -0.0978804 -1.95248)
(-1.92099e-15 -0.505519 -2.69727)
(-1.3864e-15 -0.240503 -2.85968)
(-8.2051e-16 0.0855659 -2.42808)
(-4.20839e-16 -0.536484 -1.92896)
(-1.0642e-14 -0.988377 3.17775)
(-2.85972e-15 -1.82927 4.98847)
(-1.16877e-16 -1.59128 6.62942)
(1.09948e-15 -2.09152 8.13058)
(2.1497e-15 -3.04097 9.38573)
(2.96935e-15 -4.04385 10.1706)
(2.59625e-15 -4.30915 9.66055)
(-1.94519e-17 -2.49562 6.68493)
(-3.97963e-15 1.55453 2.07155)
(-4.64701e-15 4.74692 1.42811)
(-5.03056e-15 5.63878 1.12734)
(-5.24901e-15 5.5869 0.547725)
(-4.94277e-15 4.55518 -0.00743119)
(-3.60813e-15 2.64345 -0.590064)
(-2.10232e-15 0.335644 -1.16096)
(-1.42078e-15 -0.30341 -1.66874)
(-8.50273e-16 -0.249604 -1.7777)
(-3.96918e-16 -0.0165769 -1.57048)
(-5.40136e-17 -0.776295 -1.52919)
(-4.67124e-16 6.27336 10.7326)
(-2.73993e-15 16.9953 29.7507)
(-1.92376e-15 19.0705 31.9223)
(-2.0969e-15 17.4223 28.5356)
(-2.24124e-15 15.5879 24.7694)
(-3.45951e-15 14.1808 21.8998)
(-3.82207e-15 13.0608 19.6662)
(-3.84263e-15 12.2819 18.1328)
(-4.03047e-15 11.6373 16.8116)
(-4.46877e-15 10.9913 15.5711)
(-4.91829e-15 10.3241 14.3479)
(-5.3679e-15 9.62681 13.1233)
(-5.77113e-15 8.8883 11.8859)
(-5.88982e-15 8.10502 10.6263)
(-5.55065e-15 7.28971 9.36791)
(-5.17641e-15 6.52341 8.2457)
(-5.65211e-15 5.94836 7.54988)
(-7.48363e-15 5.70584 7.56227)
(-9.88389e-15 5.52754 7.89123)
(-1.43395e-14 3.77268 5.92591)
(-1.44879e-16 4.19845 6.23731)
(-1.38198e-15 15.5753 27.5945)
(-7.70813e-16 17.8769 31.2408)
(-9.8508e-16 16.0541 27.9099)
(-1.05009e-15 14.1227 24.3425)
(-2.10417e-15 12.7902 21.7614)
(-1.75984e-15 11.9051 19.9862)
(-1.64506e-15 11.2063 18.4702)
(-2.01964e-15 10.5363 17.0655)
(-2.69497e-15 9.87222 15.6919)
(-3.22041e-15 9.19352 14.346)
(-3.82749e-15 8.50882 13.0334)
(-4.90151e-15 7.81695 11.7616)
(-5.83816e-15 7.12522 10.5139)
(-6.35188e-15 6.40193 9.2721)
(-6.64928e-15 5.67441 7.99383)
(-7.33876e-15 4.85719 6.73252)
(-8.03911e-15 4.06769 5.41921)
(-9.07212e-15 2.79647 3.99644)
(-1.42832e-14 0.79046 0.306714)
(2.92157e-17 3.98793 6.2654)
(-1.90263e-16 16.0866 27.5125)
(-1.04326e-16 19.242 32.9525)
(-7.13074e-17 17.7781 30.0942)
(-1.4452e-16 15.7582 26.3915)
(-6.37997e-16 14.3736 23.6478)
(-4.65493e-16 13.3991 21.6926)
(-4.2254e-16 12.6172 20.0502)
(-4.67796e-16 11.8521 18.4767)
(-4.87652e-16 11.0497 16.8813)
(-5.60261e-16 10.1989 15.2587)
(-6.80796e-16 9.30897 13.63)
(-8.69264e-16 8.38672 12.024)
(-1.2075e-15 7.45114 10.4543)
(-1.62517e-15 6.48137 8.92946)
(-2.18308e-15 5.4988 7.39958)
(-2.7898e-15 4.3968 5.83943)
(-3.78669e-15 3.25587 4.05592)
(-4.89273e-15 1.5225 1.91862)
(-6.4198e-15 0.019779 -1.30148)
(-9.5031e-18 5.94651 9.36557)
(9.42701e-17 17.4261 28.1207)
(6.61083e-17 20.3378 33.1965)
(6.43738e-17 18.8695 30.5498)
(8.099e-17 16.8837 27.1312)
(-6.32473e-17 15.6117 24.6188)
(-1.78398e-16 14.6957 22.7654)
(-2.47382e-16 13.8966 21.0607)
(-2.98023e-16 13.0412 19.3201)
(-3.77596e-16 12.1025 17.4912)
(-5.21829e-16 11.0835 15.5963)
(-6.4055e-16 10.0011 13.6661)
(-7.61024e-16 8.86259 11.7293)
(-9.46103e-16 7.68051 9.79576)
(-1.15734e-15 6.43289 7.87785)
(-1.50475e-15 5.13895 5.93938)
(-2.16513e-15 3.71807 3.97984)
(-3.61864e-15 2.14607 1.5874)
(-6.08682e-15 -0.221473 -1.19225)
(-1.26617e-14 -1.39282 -4.6392)
(3.1494e-18 11.1641 18.6803)
(-2.69415e-17 20.647 32.6402)
(-2.79502e-17 20.7727 33.3887)
(-2.53331e-17 19.0099 30.2736)
(-4.03288e-17 17.438 27.8369)
(7.35509e-17 16.604 26.0171)
(1.35481e-16 15.7921 24.4135)
(1.53201e-16 14.947 22.6122)
(1.69508e-16 13.913 20.6245)
(1.92944e-16 12.7668 18.4793)
(2.25393e-16 11.5179 16.2507)
(2.6922e-16 10.192 13.9623)
(3.3506e-16 8.78318 11.6362)
(4.33101e-16 7.29233 9.28139)
(5.52547e-16 5.71135 6.916)
(7.36965e-16 4.02353 4.49488)
(1.0418e-15 2.22414 2.22136)
(1.05091e-15 0.357786 -0.589043)
(6.25171e-16 -2.19199 -3.44921)
(-1.30006e-14 -2.81746 -7.36803)
(-8.03945e-19 15.7387 27.5818)
(7.49349e-18 21.4851 35.0085)
(9.68263e-18 18.4529 31.5914)
(8.12895e-18 17.0973 28.9672)
(1.43955e-17 16.0515 27.921)
(-2.15325e-17 15.4866 26.7098)
(-4.36949e-17 14.4133 25.1955)
(-5.19277e-17 13.1962 23.0984)
(-5.7908e-17 11.6519 20.7379)
(-5.95966e-17 10.0584 18.2015)
(-6.21931e-17 8.36311 15.594)
(-7.97148e-17 6.60407 12.8542)
(-1.28625e-16 4.73855 9.97989)
(-2.16711e-16 2.8015 6.99149)
(-3.08684e-16 0.868733 3.81504)
(-1.43563e-16 -1.36372 0.215933)
(8.1155e-16 -2.95329 -2.20075)
(1.54587e-15 -2.88922 -2.85166)
(-2.02637e-15 -5.3487 -5.9858)
(-1.03961e-14 -3.85877 -7.18387)
(1.86142e-19 16.5758 29.9341)
(-2.45236e-18 18.4451 31.5857)
(-3.06439e-18 15.4591 28.3681)
(-3.15547e-18 14.8743 27.0534)
(-3.83248e-18 13.7973 26.282)
(7.98048e-18 12.9197 24.9934)
(1.43054e-17 11.4591 23.2844)
(1.58766e-17 9.85467 20.9843)
(1.87123e-17 8.0126 18.4982)
(2.76933e-17 6.19117 15.9183)
(4.17573e-17 4.29501 13.2946)
(4.62371e-17 2.37992 10.5884)
(2.0682e-17 0.456693 7.85746)
(-3.62156e-17 -1.34466 5.2093)
(-7.00333e-17 -2.81056 2.92396)
(1.56182e-17 -3.77262 1.11696)
(1.70924e-16 -4.23676 -0.436282)
(-6.69074e-17 -3.69296 -0.941917)
(-1.24904e-15 -1.43054 1.06482)
(-2.02164e-15 1.17233 3.9734)
(1.41735e-20 14.3769 25.9415)
(8.11769e-19 16.6795 29.3492)
(1.0124e-18 14.3835 26.3404)
(1.14834e-18 13.1903 24.1376)
(3.74394e-19 11.8599 22.9148)
(-3.6976e-18 10.7844 21.4566)
(-6.28488e-18 9.27835 19.7841)
(-7.74749e-18 7.70264 17.6307)
(-7.88075e-18 5.94751 15.2814)
(-5.66829e-18 4.21334 12.7893)
(-2.80759e-18 2.47461 10.2685)
(-5.90334e-18 0.875325 7.86023)
(-1.86147e-17 -0.423083 5.83998)
(-2.36852e-17 -1.20566 4.47307)
(1.35003e-17 -1.22963 4.10467)
(1.00717e-16 -0.125545 5.34606)
(1.8444e-16 2.39738 8.64794)
(1.97414e-16 5.93488 13.1467)
(1.67774e-16 8.82107 16.1606)
(1.78393e-16 6.82539 13.2058)
(-1.49977e-20 13.1343 23.2897)
(-2.24243e-19 17.2969 29.5741)
(-2.71725e-19 14.8258 26.035)
(-2.91646e-19 13.4839 22.698)
(1.2351e-20 12.0499 21.0039)
(1.06138e-18 11.2725 19.1755)
(1.38345e-18 10.1168 17.6093)
(1.25031e-18 9.16871 15.802)
(1.20855e-18 8.08787 13.9812)
(1.43642e-18 7.12346 12.0793)
(1.58686e-18 6.2512 10.2703)
(1.2704e-18 5.59715 8.69524)
(2.42099e-19 5.19751 7.53955)
(-2.18549e-18 5.18135 7.05277)
(-7.02075e-18 5.63008 7.43324)
(-1.50102e-17 6.5725 8.80564)
(-2.86716e-17 7.86584 10.8812)
(-4.75269e-17 8.79333 13.0328)
(-6.07371e-17 8.95216 13.6772)
(-4.65298e-17 6.37877 11.0465)
(3.85776e-21 13.1893 23.3536)
(5.37065e-20 18.2162 30.5815)
(6.38375e-20 15.6188 27.3057)
(6.57672e-20 14.4113 23.7854)
(-4.75891e-21 13.005 22.0527)
(-2.33304e-19 12.4085 20.2361)
(-2.94883e-19 11.4991 18.7542)
(-2.06916e-19 10.8289 17.2162)
(-1.29458e-19 10.1387 15.8002)
(-1.44641e-19 9.539 14.4272)
(-1.30054e-19 8.98808 13.0889)
(1.61744e-19 8.4699 11.7578)
(8.97338e-19 7.96794 10.4235)
(1.99219e-18 7.47004 9.14638)
(3.10811e-18 7.02127 8.07846)
(4.15993e-18 6.67049 7.45569)
(6.05697e-18 6.45565 7.41658)
(1.00864e-17 6.23763 7.75001)
(1.56291e-17 5.49514 7.63661)
(1.6742e-17 3.41502 4.88841)
(-7.08671e-22 13.8098 24.4598)
(-1.11633e-20 19.0191 31.4003)
(-1.32444e-20 16.0064 27.9815)
(-1.28807e-20 15.0487 24.5792)
(8.32513e-22 13.6262 23.0042)
(4.39076e-20 13.1002 21.1997)
(5.56974e-20 12.1818 19.7241)
(4.44039e-20 11.4752 18.1362)
(5.03346e-20 10.7136 16.6462)
(7.26424e-20 9.99839 15.1984)
(3.98434e-20 9.3035 13.8097)
(-1.26402e-19 8.6245 12.4749)
(-4.0899e-19 7.95416 11.1827)
(-6.44488e-19 7.28378 9.91512)
(-5.61628e-19 6.58209 8.65745)
(2.99126e-20 5.85308 7.39843)
(9.23412e-19 5.01141 6.1863)
(1.25125e-18 4.1304 4.93358)
(-3.26045e-19 2.67056 3.44238)
(-3.88631e-18 0.83268 -0.119776)
(9.75581e-23 14.918 26.7605)
(2.02477e-21 19.6679 31.8987)
(2.40381e-21 16.109 28.5187)
(2.21039e-21 15.7064 25.3735)
(-1.41543e-22 14.1244 24.0239)
(-7.08902e-21 13.7464 22.1307)
(-9.27757e-21 12.7318 20.6981)
(-1.06577e-20 12.0854 19.0779)
(-1.87658e-20 11.3104 17.5907)
(-2.424e-20 10.5974 16.0707)
(3.81655e-22 9.85185 14.5452)
(6.94023e-20 9.06741 12.9824)
(1.48526e-19 8.21589 11.3793)
(1.51244e-19 7.2929 9.73414)
(-1.97038e-20 6.27543 8.06605)
(-3.94463e-19 5.19736 6.35083)
(-8.79735e-19 3.93581 4.57828)
(-1.36773e-18 2.62187 2.54121)
(-1.77719e-18 0.470475 0.107805)
(-3.68095e-18 -0.80809 -3.48971)
(-1.26222e-23 16.2258 29.7709)
(-3.19529e-22 19.9632 31.8572)
(-3.02032e-22 16.0859 29.1201)
(-8.48498e-23 16.413 26.3372)
(1.82108e-22 14.5573 25.2232)
(5.04142e-23 14.4316 23.2619)
(-1.96843e-21 13.2901 21.9614)
(-3.2982e-21 12.8059 20.3731)
(-2.55562e-22 12.044 18.9982)
(5.22478e-21 11.4088 17.4926)
(6.01794e-21 10.6348 15.8884)
(1.41183e-21 9.73239 14.0683)
(7.1048e-21 8.64256 12.0463)
(4.84775e-20 7.40002 9.86245)
(1.37712e-19 6.01 7.59089)
(2.5652e-19 4.53747 5.23326)
(3.65363e-19 2.82676 2.82064)
(3.858e-19 1.1777 0.166431)
(-1.67623e-20 -1.4343 -2.59874)
(-2.52412e-18 -2.34316 -6.33517)
(-8.19251e-25 17.0476 32.1604)
(4.02348e-23 19.5434 30.9898)
(1.1918e-22 15.7975 29.4917)
(2.32744e-22 16.6222 26.9554)
(-1.88495e-22 14.4276 26.0359)
(-2.14416e-21 14.5199 24.0756)
(-5.28038e-21 13.1824 22.9937)
(-6.31703e-21 12.8549 21.5087)
(5.15921e-22 11.9984 20.3173)
(1.87027e-20 11.3549 18.8139)
(4.63477e-20 10.346 17.0362)
(8.13795e-20 9.10439 14.7704)
(1.24192e-19 7.5852 12.1917)
(1.61175e-19 5.95708 9.46499)
(1.56151e-19 4.22134 6.64351)
(1.05977e-19 2.42866 3.73181)
(8.22722e-20 0.367816 0.78183)
(2.34533e-19 -1.10621 -2.57009)
(5.32027e-19 -3.63267 -4.77595)
(-2.09171e-18 -3.76423 -8.77474)
(-3.31554e-24 16.8627 32.5134)
(6.91227e-24 18.6495 29.6729)
(1.22567e-22 15.2283 29.0626)
(2.29346e-22 15.977 26.5741)
(-4.96883e-22 13.698 25.6816)
(-3.17541e-21 13.6476 23.8078)
(-6.75962e-21 12.2342 22.7806)
(-5.91235e-21 11.7757 21.3951)
(5.40867e-21 10.769 20.2479)
(2.64531e-20 9.91308 18.6797)
(5.39171e-20 8.58263 16.6643)
(1.00103e-19 7.04715 14.0806)
(1.85317e-19 5.38751 11.3485)
(2.84544e-19 3.79483 8.61823)
(3.20898e-19 2.10341 5.66837)
(3.06344e-19 0.43586 2.85275)
(3.80185e-19 -0.936809 0.587213)
(3.21259e-19 -2.91369 -2.90229)
(-3.3224e-19 -5.18238 -6.36829)
(-1.41147e-18 -3.57098 -5.95993)
(-2.46774e-24 15.9772 31.3319)
(1.08787e-23 18.1949 28.6577)
(1.09658e-22 14.484 28.0136)
(1.73481e-22 15.2911 25.4164)
(-5.33034e-22 12.9566 24.5003)
(-2.98456e-21 12.7538 22.607)
(-6.43412e-21 11.3486 21.4655)
(-6.92766e-21 10.6735 20.0588)
(-1.98344e-22 9.62783 18.8369)
(1.29951e-20 8.65053 17.3503)
(3.15351e-20 7.41648 15.5604)
(6.67226e-20 6.11797 13.4713)
(1.36473e-19 4.85207 11.3349)
(2.42702e-19 3.607 9.09132)
(3.66934e-19 2.10797 6.30205)
(4.67167e-19 0.248527 2.76895)
(4.48055e-19 -1.46315 -0.610244)
(2.03077e-19 -2.03796 -2.06371)
(-1.90076e-19 -1.0367 -0.436643)
(-1.44371e-19 1.44746 3.82011)
(-1.59287e-24 15.1952 30.7249)
(1.30076e-23 18.1589 27.7243)
(8.76865e-23 13.9046 27.3097)
(1.21488e-22 15.0871 24.5455)
(-3.98309e-22 12.7102 23.6146)
(-2.21538e-21 12.5534 21.6562)
(-5.38327e-21 11.2472 20.3802)
(-8.45335e-21 10.5917 18.8657)
(-9.08713e-21 9.67504 17.5608)
(-6.37963e-21 8.90881 16.2074)
(-1.30717e-21 8.08735 14.8469)
(6.86315e-21 7.2997 13.3997)
(2.4862e-20 6.5106 11.874)
(6.55035e-20 5.70755 10.2291)
(1.36271e-19 4.86793 8.42709)
(2.2759e-19 4.02937 6.47875)
(3.48081e-19 3.14412 4.38023)
(5.81935e-19 2.02135 1.93924)
(3.59653e-19 0.260119 -0.89044)
(7.01725e-19 2.01524 2.5573)
(-6.96875e-25 14.1519 30.677)
(1.1583e-23 18.1353 27.3527)
(6.26162e-23 13.3024 27.2805)
(6.41469e-23 14.4028 24.7794)
(-3.62742e-22 12.2634 23.8139)
(-1.76716e-21 11.8882 22.1179)
(-4.28999e-21 10.7876 20.8468)
(-7.14238e-21 10.1132 19.4578)
(-8.85627e-21 9.34791 18.1974)
(-8.71714e-21 8.70664 16.9524)
(-7.8092e-21 8.08015 15.739)
(-7.94567e-21 7.48126 14.4855)
(-9.36818e-21 6.86585 13.1449)
(-9.96386e-21 6.21849 11.674)
(-2.31374e-21 5.48599 9.98568)
(3.79874e-20 4.5109 7.77989)
(1.51547e-19 2.89173 4.60571)
(3.04019e-19 0.832389 0.401947)
(4.48793e-19 -0.840942 -2.36623)
(7.84536e-19 -1.1398 -3.79425)
(1.07417e-25 11.2588 28.7294)
(6.15764e-24 17.11 25.0633)
(2.56418e-23 12.0609 25.4573)
(1.78658e-23 12.7494 23.7268)
(-2.02223e-22 11.0209 22.9712)
(-9.41213e-22 10.3823 21.8679)
(-2.34713e-21 9.41369 20.9385)
(-4.07346e-21 8.67003 19.9755)
(-5.40334e-21 7.93394 19.0532)
(-6.13357e-21 7.27992 18.136)
(-7.2581e-21 6.66735 17.221)
(-1.01229e-20 6.09734 16.2858)
(-1.42107e-20 5.55429 15.3071)
(-1.49927e-20 5.01707 14.2324)
(-5.75357e-22 4.41832 12.9236)
(5.6116e-20 3.57706 11.0566)
(1.97769e-19 2.21538 8.04936)
(4.31582e-19 0.165296 3.42647)
(6.16153e-19 -2.10581 -1.85302)
(4.86049e-19 -2.38042 -4.41684)
(2.76067e-25 2.62882 17.1205)
(1.30768e-24 8.04553 13.7187)
(5.25991e-25 5.16674 14.5784)
(-6.073e-24 4.96956 14.1934)
(-2.55663e-23 4.04447 14.1617)
(-8.28523e-23 3.476 13.9969)
(-2.43618e-22 2.89777 13.8477)
(-6.02311e-22 2.42268 13.6627)
(-1.19129e-21 2.00764 13.4546)
(-1.88372e-21 1.6648 13.2195)
(-2.46809e-21 1.39183 12.9618)
(-2.93498e-21 1.19282 12.6842)
(-3.71218e-21 1.06876 12.3902)
(-5.61945e-21 1.02982 12.0793)
(-9.66386e-21 1.09315 11.7475)
(-1.65275e-20 1.22797 11.4075)
(-2.46378e-20 1.47159 10.9903)
(-2.7377e-20 2.13828 10.1206)
(-1.73815e-20 2.41977 8.68487)
(-2.27713e-21 -0.18622 6.49788)
(-2.8428e-25 -2.62887 17.1205)
(-1.31693e-24 -8.04555 13.7188)
(-4.49876e-25 -5.16675 14.5785)
(6.276e-24 -4.96954 14.1936)
(2.56812e-23 -4.04443 14.1618)
(8.28609e-23 -3.47592 13.9971)
(2.45644e-22 -2.89766 13.8478)
(6.13228e-22 -2.42253 13.6629)
(1.22308e-21 -2.00745 13.4548)
(1.94999e-21 -1.66458 13.2197)
(2.57951e-21 -1.3916 12.962)
(3.09796e-21 -1.19257 12.6845)
(3.93124e-21 -1.06849 12.3905)
(5.90398e-21 -1.02954 12.0798)
(1.00429e-20 -1.09285 11.748)
(1.70571e-20 -1.22769 11.4082)
(2.53393e-20 -1.47143 10.9911)
(2.80853e-20 -2.13843 10.1214)
(1.77628e-20 -2.4202 8.68542)
(2.29275e-21 0.186024 6.49842)
(-1.15697e-25 -11.259 28.7297)
(-6.28147e-24 -17.1101 25.0637)
(-2.60352e-23 -12.0611 25.4577)
(-1.77593e-23 -12.7496 23.7273)
(2.06823e-22 -11.0211 22.9717)
(9.5863e-22 -10.3825 21.8685)
(2.38681e-21 -9.41379 20.9391)
(4.14296e-21 -8.67011 19.9761)
(5.51786e-21 -7.93399 19.0539)
(6.33961e-21 -7.27993 18.1366)
(7.63731e-21 -6.66731 17.2216)
(1.07358e-20 -6.09728 16.2863)
(1.49988e-20 -5.55425 15.3076)
(1.57035e-20 -5.01707 14.2331)
(6.59596e-22 -4.41821 12.9241)
(-5.78325e-20 -3.57632 11.0561)
(-2.03329e-19 -2.21325 8.04635)
(-4.42321e-19 -0.161499 3.42043)
(-6.28426e-19 2.10927 -1.85816)
(-4.91409e-19 2.38027 -4.41644)
(7.03312e-25 -14.1522 30.6777)
(-1.18701e-23 -18.1359 27.3533)
(-6.38427e-23 -13.3028 27.2812)
(-6.48837e-23 -14.4034 24.78)
(3.71264e-22 -12.2641 23.8145)
(1.80284e-21 -11.889 22.1185)
(4.37157e-21 -10.7885 20.8473)
(7.27784e-21 -10.1142 19.4583)
(9.04612e-21 -9.34905 18.1979)
(8.98401e-21 -8.70791 16.9527)
(8.21032e-21 -8.08154 15.7392)
(8.50385e-21 -7.48274 14.4857)
(9.97611e-21 -6.86747 13.1453)
(1.04141e-20 -6.22032 11.6747)
(2.27646e-21 -5.48793 9.98668)
(-3.95272e-20 -4.51242 7.78047)
(-1.56742e-19 -2.89195 4.60512)
(-3.15425e-19 -0.8313 0.399944)
(-4.46652e-19 0.843015 -2.36707)
(-7.84736e-19 1.14106 -3.79685)
(1.6243e-24 -15.1949 30.7246)