/*--------------------------------*- C++ -*----------------------------------*\
| =========                 |                                                 |
| \\      /  F ield         | OpenFOAM: The Open Source CFD Toolbox           |
|  \\    /   O peration     | Version:  4.1                                   |
|   \\  /    A nd           | Web:      www.OpenFOAM.org                      |
|    \\/     M anipulation  |                                                 |
\*---------------------------------------------------------------------------*/
FoamFile
{
    version     2.0;
    format      ascii;
    class       surfaceScalarField;
    location    "25";
    object      phi;
}
// * * * * * * * * * * * * * * * * * * * * * * * * * * * * * * * * * * * * * //

dimensions      [0 3 -1 0 0 0 0];

internalField   nonuniform List<scalar> 
3120
(
-34391.8
-118978
-34391.8
-23043.2
-11348.6
-23043.2
-35358.3
12315.1
-45784
10425.7
-45784
-47355
1571.07
-42041.9
-5313.11
-42041.9
-36776.5
-5265.47
-36776.5
-30137.4
-6639.04
-23263.3
-6874.11
-23263.3
-15866.3
-7397.01
-15866.3
-7967.28
-7899.04
472.589
-8439.84
472.599
1123.56
7966.47
-5856.02
8988.96
10006.8
11033.2
12061.5
13087.9
14109.4
15125.3
16135.3
17139.8
16854.5
1266.09
17852.7
18857.2
19859.9
20860
21854.4
22863.5
23908
24562.3
17376.7
7185.6
17376.7
17376.7
9825.05
7551.7
9825.05
9825.05
9825.05
2632.01
7193.04
2631.99
2632
-3009.04
5641.02
-3009.04
-3009.07
-3009.07
-4044.24
1035.15
-4044.24
-4044.26
-4044.26
-3452.88
-591.397
-13915
105730
-19264.2
44129.9
-17354.6
-21029.7
-5940.13
-95427
2992.36
-28458.1
4905.91
-17104.4
2055.97
3229.77
-853.822
18060.6
-2309.26
20503
-3132.68
23247.6
-4104.51
24491.9
-5150.58
19366.9
-6066.69
10581.8
-7017.99
95.2593
-7310.11
-12907.5
-6788
-25532.4
-6600.87
-27449.5
-2828.16
-27735.6
2658.81
-14163.8
121147
-20140.5
50106.6
-17928.9
-23241.3
-6071.64
-107284
3619.16
-38149
5835.04
-19320.3
2988.32
6076.44
46.0535
21002.9
-1623.72
22172.8
-2524.19
24148
-3354.82
25322.5
-4430.04
20442.1
-5587.67
11739.4
-6657.19
1164.73
-6672.53
-12892.2
-5564.82
-26640.1
-5349.27
-27665.1
-3838.49
-29246.4
-144.564
-14075.8
136724
-20543.3
56574
-18019.6
-25764.9
-5927.72
-119376
4151.91
-48228.6
6577.32
-21745.7
4005.19
8648.59
1148.69
23859.4
-667.909
23989.4
-1776.91
25257
-2618.94
26164.5
-3803.36
21626.5
-5191.7
13127.7
-6274.6
2247.65
-6061.66
-13105.1
-4509.89
-28191.9
-3858.53
-28316.4
-4370.2
-28734.7
1126.29
-13609.8
152084
-20462.1
63426.3
-17659.7
-28567.4
-5525.63
-131510
4387.79
-58142
6881.02
-24238.9
5100.01
10429.6
2440.41
26519
618.817
25810.9
-711.485
26587.3
-1850.21
27303.3
-3230.97
23007.3
-4734.99
14631.8
-5688.86
3201.47
-5204.16
-13589.9
-3351.21
-30044.9
-1922.67
-29745
-3055.25
-27602.2
5264.06
-12767.7
166855
-19920.6
70579.2
-16859
-31629
-4927.63
-143442
4177.96
-67247.6
6527.13
-26588.1
6112.55
10844.2
3833.52
28798
2148.22
27496.2
784.539
27951
-889.206
28977
-2661.26
24779.3
-4189.87
16160.4
-4978.66
3990.28
-4130.85
-14437.7
-2027.51
-32148.2
183.969
-31956.4
-1119
-26299.2
11696.8
-11576.5
180691
-18904.1
77906.8
-15520.5
-35012.6
-4159.87
-154802
3970.99
-75378.5
5973.49
-28590.6
6853.27
9964.36
5178.32
30473
3649.24
29025.3
2509.25
29091
365.195
31121.1
-2022.76
27167.3
-3594.91
17732.5
-4316.26
4711.59
-3008.49
-15745.4
-569.357
-34587.3
1780.99
-34306.8
804.661
-25322.9
19687.1
-10083.1
193287
-17372
85195.8
-13433.3
-38951.3
-3081.2
-165154
4619.71
-83079.4
6175.39
-30146.3
7316.93
8822.84
6340.08
31449.8
4938.17
30427.2
4075.93
29953.2
1717.96
33479
-1292.91
30178.2
-2991.84
19431.4
-3787.44
5507.22
-1978.81
-17554.1
763.543
-37329.7
2675.88
-36219.1
4767.98
-27415
25721.2
-8358.8
204404
-15337.1
92174.1
-10374.1
-43914.3
-1386.04
-174142
6166.24
-90631.7
7245.96
-31226
7666.5
8402.28
7268.15
31848.2
6036.05
31659.3
5252.77
30736.5
2803.22
35928.6
-580.355
33561.7
-2385.75
21236.8
-3303.75
6425.18
-1022.55
-19835.3
1556.01
-39908.3
2936.95
-37600.1
7910.43
-32388.4
27775.6
-6531.37
213936
-12963.3
98606
-6222.85
-50654.7
1229.43
-181595
7890.3
-97292.5
8367.24
-31703
7983.84
8785.7
7948.95
31883.1
6998.39
32609.9
6013.81
31721.1
3379.9
38562.5
-21.2782
36962.9
-1744.62
22960.2
-2675.9
7356.49
-53.9468
-22457.2
1440.5
-41402.7
2215.61
-38375.2
8822.41
-38995.2
28158.2
-4734.56
221889
-10469.8
104341
-994.886
-60129.5
4958.42
-187548
9590.58
-101925
9055.53
-31167.9
8105.48
9735.73
8307.3
31681.2
7722.63
33194.5
6336.77
33106.9
3414.16
41485.1
348.641
40028.4
-1025.01
24333.8
-1766.72
8098.17
818.473
-25042.5
259.902
-40844.1
714.442
-38829.7
8775.7
-47056.5
29034.8
-3159.04
228494
-8104.45
109287
5311.41
-73545.4
9856.19
-192093
11653.8
-103722
9559.32
-29073.5
7930.6
11364.5
8254.25
31357.6
7992
33456.8
6127.03
34971.9
3012.98
44599.1
592.302
42449.1
-230.436
25156.6
-643.708
8511.48
1249.16
-26935.3
-1539.75
-38055.2
-517.304
-39852.2
9087.17
-56660.9
30725
-1832.79
233924
-5512.17
112966
12678.6
-91736.1
15690.5
-195105
14230.4
-102262
10146.8
-24989.9
7488.08
14023.2
7784.96
31060.7
7657.16
33584.6
5337.82
37291.2
2366.16
47570.8
807.517
44007.7
557.232
25406.8
535.516
8533.17
908.33
-27308.1
-3539.52
-33607.4
-1001.33
-42390.4
9832.15
-67494.4
33683.1
-1249.23
239025
-2941.25
114658
20798.4
-115476
21794.3
-196101
16830.7
-97298.7
10692.5
-18851.7
6845.93
17869.8
6998.76
30907.9
6720.62
33862.7
4071.85
39940
1684.11
49958.5
1051.75
44640.1
1203.52
25255.1
1497.72
8239
-432.384
-25378
-6097.14
-27942.6
-1674.42
-46813.1
9972.01
-79140.9
37016.1
-873.387
243680
42.885
113742
29026.5
-144459
26837.4
-193911
18175
-88636.3
10498.9
-11175.6
5908.07
22460.6
5955.75
30860.2
5279.39
34539.1
2577.25
42642.1
1172.58
51363.2
1399.07
44413.6
1747.94
24906.2
1966.78
8020.14
-2781.83
-20629.4
-9300.39
-21424.1
-3783.42
-52330
8765.04
-91689.3
40515.6
-2775.73
250813
2173.36
108793
36751.8
-179038
29092.7
-186252
16377.2
-75920.8
8603.92
-3402.26
4689.86
26374.7
4772.1
30778
3523.9
35787.3
1140.4
45025.7
883.388
51620.2
1764.16
43532.9
2179.61
24490.8
1827.48
8372.3
-5285.13
-13516.8
-12245.8
-14463.4
-7589.73
-56986.1
5966.55
-105246
41169.1
-2435.29
256556
7056.09
99301.3
43541
-215523
27048.8
-169760
9856.35
-58728.3
4131.24
2322.82
2890.54
27615.4
3261.19
30407.3
1635.93
37412.6
55.9828
46605.6
910.693
50765.5
2330.61
42112.9
2959.77
23861.6
2063.67
9268.39
-5955.94
-5497.21
-12890.6
-7528.67
-11361.9
-58514.9
1106.7
-117714
43846.8
-8120.39
270603
8544.65
82636.2
48023.7
-255002
20344.2
-142081
1467.03
-39851.1
213.721
3576.15
1890.36
25938.7
1948.04
30349.6
38.205
39322.4
-654.15
47298
821.798
49289.6
2438.02
40496.7
3123.72
23175.9
3078.61
9313.53
-2230.17
-188.412
-7798.59
-1960.26
-12102.3
-54211.2
-6006.98
-123809
48265.6
-23090.8
293436
10248.6
49296.8
47491.9
-292245
9419.72
-104009
-4696.86
-25734.5
-2973.35
1852.64
-395.518
23360.9
-523.521
30477.6
-1409.14
40208
-731.564
46620.4
1513.43
47044.6
3805.18
38205
4692.65
22288.5
5704.83
8301.36
5632.42
-115.992
4694.74
-1022.58
-8371.84
-41144.6
-7085.94
-125095
53494.7
104155
203269
90729.8
62722.2
39692.9
-241208
-6009.8
-58305.8
-7775.96
-23968.3
-1789.77
-4133.55
2440.65
19130.5
1131.45
31786.8
-945.233
42284.7
-1174.58
46849.7
-390.362
46260.3
730.01
37084.6
962.825
22055.6
5424.35
3839.84
10103.1
-4794.79
14121.6
-5041.06
-1370.37
-25652.6
-5368.83
-121097
36777.3
-265172
92933.4
13758.7
-12699.8
-12631.8
-14870.6
-12039.5
-10598.4
-5987.98
-628.492
6450.05
13112.1
17224.2
18223
16335.9
14934.4
3771.6
-30616.4
-68.3212
-582.664
4.32511
-1059.56
28.9764
-1047.14
19.4075
-1008.3
0.0302817
-1007.01
-19.7316
-1008.53
-35.9942
-1010.12
-46.8924
-1010.67
-51.5897
-1011.13
-50.7083
-1010.94
-45.4827
-1009.68
-21.3803
-1004.93
-12.9808
-1006.56
-10.7433
-1006.79
-7.7447
-1005.73
-2.52124
-1005.24
6.07158
-1003.04
23.6714
-1026.68
42.9192
-1063.82
-611.366
14.9085
-597.574
15.5638
-1060.21
3.72863
-1035.31
-1.42202
-1003.15
-5.76489
-1002.66
-11.2517
-1003.05
-17.609
-1003.76
-24.4636
-1003.82
-31.1755
-1004.42
-37.4388
-1004.68
-41.7404
-1005.38
-39.7726
-1006.9
-39.9928
-1006.34
-39.9878
-1006.8
-38.9261
-1006.79
-37.0375
-1007.13
-33.1201
-1006.96
-28.3504
-1031.46
-24.1354
-1068.04
-635.501
23.3981
-620.973
23.3853
-1060.2
17.4597
-1029.38
14.7714
-1000.46
12.8002
-1000.69
10.869
-1001.12
9.02931
-1001.92
7.26718
-1002.06
5.50731
-1002.66
3.78625
-1002.96
1.7855
-1003.38
-1.5487
-1003.57
-3.81521
-1004.07
-5.9609
-1004.65
-8.04317
-1004.71
-10.0637
-1005.11
-12.1656
-1004.86
-14.6065
-1029.02
-14.8912
-1067.75
-650.393
22.8278
-643.799
23.515
-1060.89
18.0026
-1023.87
15.6632
-998.122
13.6211
-998.65
11.4756
-998.969
9.23454
-999.68
6.96296
-999.782
4.66075
-1000.35
2.33069
-1000.62
0.0533607
-1001.11
-1.96105
-1001.55
-4.18072
-1001.85
-6.45162
-1002.38
-8.65629
-1002.51
-10.8268
-1002.94
-12.935
-1002.75
-16.559
-1025.39
-17.3918
-1066.92
-667.784
22.4009
-666.199
22.0369
-1060.52
16.8704
-1018.7
14.6336
-995.884
12.7109
-996.727
10.7154
-996.972
8.67407
-997.638
6.61739
-997.725
4.50853
-998.245
2.36242
-998.478
0.165013
-998.907
-2.14476
-999.243
-4.40784
-999.588
-6.70379
-1000.09
-8.95094
-1000.26
-11.1765
-1000.71
-13.4802
-1000.45
-17.8987
-1020.97
-19.1927
-1065.63
-686.977
21.5593
-687.758
20.4456
-1059.41
15.6543
-1013.91
13.608
-993.838
11.7161
-994.835
9.76962
-995.025
7.77218
-995.64
5.76783
-995.72
3.72578
-996.203
1.66005
-996.412
-0.428811
-996.818
-2.53887
-997.133
-4.66509
-997.462
-6.84163
-997.908
-8.98954
-998.111
-11.1447
-998.557
-13.3629
-998.228
-17.9377
-1016.4
-19.8581
-1063.71
-706.835
21.2491
-709.007
19.3932
-1057.55
14.8245
-1009.34
12.8358
-991.848
10.9546
-992.953
9.02881
-993.099
7.06278
-993.674
5.09961
-993.756
3.10797
-994.211
1.10643
-994.409
-0.910234
-994.801
-2.95317
-995.089
-4.98796
-995.427
-7.06073
-995.835
-9.10105
-996.07
-11.1527
-996.505
-13.2334
-996.147
-17.6521
-1011.98
-20.1613
-1061.2
-726.996
20.9569
-729.964
18.431
-1055.03
14.1093
-1005.02
12.2281
-989.968
10.3918
-991.117
8.52363
-991.232
6.61829
-991.769
4.72068
-991.859
2.79828
-992.289
0.871595
-992.483
-1.06705
-992.863
-3.02308
-993.134
-4.9741
-993.476
-6.96213
-993.848
-8.91978
-994.113
-10.8963
-994.529
-12.8651
-994.179
-17.0965
-1007.75
-20.2105
-1058.08
-747.207
20.7662
-750.729
17.5849
-1051.84
13.5089
-1000.94
11.7185
-988.176
9.93208
-989.33
8.1222
-989.421
6.2783
-989.924
4.44486
-990.025
2.58832
-990.431
0.73139
-990.625
-1.13678
-990.994
-3.01918
-991.25
-4.89555
-991.599
-6.80579
-991.937
-8.68607
-992.232
-10.5911
-992.624
-12.4538
-992.316
-16.449
-1003.75
-20.1657
-1054.37
-767.373
20.5906
-771.32
16.7738
-1048.03
12.9546
-997.123
11.2591
-986.481
9.53049
-987.601
7.7863
-987.677
6.00919
-988.147
4.24363
-988.259
2.45493
-988.643
0.667964
-988.839
-1.13133
-989.195
-2.94192
-989.44
-4.7485
-989.792
-6.58668
-990.098
-8.3964
-990.422
-10.2364
-990.784
-12.0051
-990.547
-15.7559
-1000
-20.0729
-1050.05
-787.445
20.4356
-791.756
15.9896
-1043.58
12.434
-993.568
10.8256
-984.872
9.15658
-985.932
7.47814
-985.998
5.7679
-986.437
4.0696
-986.561
2.34786
-986.921
0.629578
-987.12
-1.10267
-987.462
-2.84341
-987.699
-4.58254
-988.053
-6.35038
-988.331
-8.09167
-988.681
-9.86796
-989.007
-11.5505
-988.865
-15.0479
-996.505
-19.9624
-1045.13
-807.408
20.2875
-812.045
15.2177
-1038.51
11.9303
-990.282
10.4038
-983.347
8.79589
-984.326
7.18393
-984.387
5.54101
-984.795
3.91007
-984.931
2.25522
-985.268
0.605275
-985.471
-1.06059
-985.797
-2.73198
-986.029
-4.40509
-986.381
-6.10327
-986.633
-7.77786
-987.007
-9.49087
-987.295
-11.0942
-987.262
-14.3345
-993.265
-19.8438
-1039.63
-827.252
20.1486
-832.194
14.4568
-1032.82
11.4415
-987.266
9.99085
-981.897
8.44556
-982.781
6.90037
-982.843
5.32499
-983.22
3.76136
-983.368
2.17341
-983.68
0.591386
-983.89
-1.00853
-984.198
-2.61086
-984.427
-4.21903
-984.773
-5.84753
-985.005
-7.45669
-985.398
-9.10608
-985.646
-10.6365
-985.732
-13.618
-990.284
-19.7198
-1033.52
-846.971
20.0198
-852.215
13.7046
-1026.51
10.9637
-984.527
9.58421
-980.519
8.10328
-981.301
6.62583
-981.367
5.11839
-981.714
3.62246
-981.874
2.10195
-982.161
0.587585
-982.377
-0.946156
-982.665
-2.47947
-982.895
-4.02369
-983.23
-5.58197
-983.448
-7.12748
-983.854
-8.71235
-984.062
-10.1757
-984.269
-12.8988
-987.562
-19.5899
-1026.83
-866.561
19.9102
-872.126
12.9643
-1019.56
10.4998
-982.063
9.18784
-979.208
7.77312
-979.888
6.36489
-979.959
4.92544
-980.275
3.49724
-980.446
2.0447
-980.709
0.59713
-980.93
-0.870036
-981.199
-2.3346
-981.431
-3.81554
-981.75
-5.30215
-981.962
-6.78579
-982.371
-8.30395
-982.544
-9.70534
-982.868
-12.1726
-985.095
-19.4461
-1019.56
-886.007
19.8436
-891.971
12.2539
-1011.97
10.0727
-979.884
8.83102
-977.968
7.48699
-978.545
6.15239
-978.626
4.78154
-978.906
3.41963
-979.086
2.03316
-979.324
0.647246
-979.546
-0.757822
-979.795
-2.16055
-980.03
-3.5848
-980.327
-5.00437
-980.544
-6.43485
-980.941
-7.8861
-981.094
-9.23289
-981.522
-11.4493
-982.879
-19.2851
-1011.72
-905.293
19.8666
-911.838
11.6124
-1003.72
9.74313
-978.015
8.59948
-976.824
7.34766
-977.293
6.10919
-977.388
4.82505
-977.622
3.54178
-977.803
2.23138
-978.014
0.911048
-978.226
-0.431435
-978.453
-1.77969
-978.682
-3.15741
-978.949
-4.52726
-979.174
-5.93157
-979.537
-7.33496
-979.691
-8.6688
-980.189
-10.673
-980.875
-19.0368
-1003.36
-924.329
20.0759
-931.914
11.1011
-994.745
9.58879
-976.503
8.60361
-975.84
7.48187
-976.172
6.37003
-976.277
5.20127
-976.454
4.01595
-976.618
2.79811
-976.796
1.55674
-976.985
0.288205
-977.185
-0.998187
-977.396
-2.31933
-977.629
-3.64038
-977.853
-5.02127
-978.157
-6.38019
-978.332
-7.75957
-978.81
-9.59906
-979.036
-18.4197
-994.541
-942.749
20.7983
-952.713
11.0689
-985.016
9.96404
-975.398
9.25087
-975.127
8.35645
-975.278
7.4311
-975.352
6.42282
-975.446
5.35134
-975.547
4.21219
-975.658
3.00801
-975.781
1.74075
-975.918
0.416173
-976.071
-0.968041
-976.245
-2.38558
-976.436
-3.87475
-976.668
-5.32841
-976.879
-6.87882
-977.259
-8.53129
-977.383
-17.5626
-985.51
-960.312
22.287
12.2706
11.8721
11.7451
11.4668
11.1148
10.6688
10.1215
9.46368
8.68262
7.76458
6.69294
5.44806
4.0117
2.34362
0.46456
-1.79489
-4.17847
-14.6884
-3452.91
-2284.73
-1168.19
-2284.76
-2284.78
-2284.79
-3525.39
1240.59
-3525.41
-3525.43
-3525.44
-8281.26
4755.81
-8281.26
-8281.27
-14374.4
6093.12
-14374.4
-14374.4
-14374.4
-19910.9
5536.46
-19910.9
-19910.9
-25075.7
5164.79
-24309.8
-23326.6
-22395.5
-21619.4
-20995.1
-20467.9
-19954.9
-19386.8
-25119.2
6372.72
-24347.5
-23462.8
-22476.3
-21397.8
-20234
-18981.8
-17616.7
-16092.5
-14406.8
-11751.9
-987.157
-10961.3
-10961.3
-10681.2
-280.072
-9574.1
-1107.11
-9574.1
-8083.77
-1490.34
-8083.77
-6062.98
-2020.8
-3824.19
-2238.81
-3824.2
-1623.11
-2201.11
-1623.15
111.912
-1735.1
1090.08
-978.208
1090.06
1318.45
-228.43
1035.81
282.615
1035.79
520.111
515.643
520.067
520.064
-1506.29
1506.24
-2639.73
1133.4
-2485.83
-153.952
384.871
-2870.73
1000.69
-615.893
2504.13
-1503.48
2559.21
-55.1404
2520.19
38.9603
2377.55
142.587
2471.66
-94.1665
2527.58
-55.9763
2928.68
-401.14
4059.84
-1131.2
5734.55
-1674.72
7724.27
-1989.74
8130.01
-405.744
5062.6
3067.4
1214.72
3847.86
1734.76
-2064.76
3570.97
-2460.09
1528.68
-1730.62
-883.477
681.463
-5282.84
1352.16
-1286.64
2573.36
-2724.72
2775.06
-256.896
2887.45
-73.4952
2726.14
303.847
2680.72
-48.8098
2629.68
-4.98702
2748.86
-520.377
3291.27
-1673.66
4682.32
-3065.81
6467.61
-3775.04
7934.49
-1872.64
6916.83
4085.05
2280.71
8483.96
4531.11
-2002.9
5573.85
-2240.74
1766.49
-1357.58
-1766.67
1001.17
-7641.61
1499.4
-1784.9
2472.58
-3697.93
2655.23
-439.599
2754.82
-173.134
2563.46
495.159
2567.45
-52.8573
2420.13
142.27
2040.91
-141.26
2139.73
-1772.53
3447.98
-4374.06
5288.65
-5615.72
6758.83
-3342.83
6612.18
4231.69
2640.36
12455.8
7454.08
-1944.96
7518.79
-2183.69
2005.18
-1121.13
-2829.26
1264.13
-10026.9
1280.92
-1801.74
1926.56
-4343.6
2131.57
-644.691
2359.06
-400.709
2174.77
679.391
1970.04
151.788
1521.86
590.375
826.421
554.043
763.441
-1709.62
2084.83
-5695.48
3953.26
-7484.17
5342.13
-4731.71
5822.89
3750.91
3021.45
15257.2
10247.1
-1910.26
9429.04
-2216.89
2311.78
-970.648
-4075.52
1417.04
-12414.6
615.277
-1000.03
1049.73
-4778.09
1420.54
-1015.56
1883.96
-864.204
1592.37
970.933
599.174
1144.93
-755.788
1945.3
-1208.8
1007.02
-743.995
-2174.45
571.026
-7010.51
2401.49
-9314.64
3742.7
-6072.93
4756.78
2736.82
3497.18
16516.8
12766.1
-1823.45
11252.5
-2258.66
2746.95
-930.851
-5403.35
1385.69
-14731.1
-278.818
664.401
498.911
-5555.85
1458.15
-1974.87
1779.29
-1185.43
876.87
1873.31
-821.625
2843.38
-2206.12
3329.76
-2536.98
1337.84
-2146.65
-2564.83
-1028.37
-8128.81
686.33
-11029.4
2010.99
-7397.6
3325.81
1421.96
3649.56
16193.1
14680.5
-1688.83
12941.3
-2290.61
3348.7
-1039.77
-6654.2
930.501
-16701.4
-822.104
2416.97
301.679
-6679.65
1766.64
-3439.86
1837.43
-1256.26
310.546
3400.16
-1756.48
4910.39
-3173.83
4747.11
-3649.32
1813.32
-3493.84
-2720.32
-2621.45
-9001.2
-1083.81
-12567
691.488
-9172.91
1890.85
222.555
3462.7
14621.2
15942.1
-1601.18
14542.5
-2389.9
4137.4
-1330.65
-7713.47
433.808
-18465.9
-1121.44
3972.18
27.9855
-7829.1
1623.45
-5035.36
1506.52
-1139.46
-344.762
5251.41
-2478
7043.6
-3979.86
6248.95
-4693.42
2526.86
-4811.49
-2602.28
-4192.13
-9620.58
-2746.43
-14012.7
-167.912
-11751.4
742.649
-688.061
2973.68
12390.2
16677
-1705.06
16247.5
-2691.69
5124.02
-1823.04
-8582.13
-73.4752
-20215.4
-1407.17
5305.87
-468.57
-8767.71
725.053
-6229
597.705
-1012.22
-1184.56
7033.66
-3143.73
9002.77
-4708.44
7813.66
-5674.04
3492.45
-6070.47
-2205.86
-5712.03
-9979.01
-4404.54
-15320.2
-2088.53
-14067.4
100.145
-2876.74
2195.76
10294.5
16851.9
-2091.34
18338.9
-3275.41
6308.07
-2519.32
-9338.25
-594.101
-22140.7
-1643.88
6355.62
-994.651
-9416.97
-387.735
-6835.95
-758.932
-641.143
-2097.02
8371.73
-3792.69
10698.4
-5371.61
9392.57
-6562.26
4683.08
-7220.89
-1547.26
-7149.9
-10050
-6071.66
-16398.5
-3849.43
-16289.7
-1110.92
-5615.26
1256.37
7927.22
16617.9
-2718.08
21056.9
-4112.85
7702.84
-3408.62
-10042.5
-1093.84
-24455.5
-1809.46
7071.24
-1366.2
-9860.24
-1055.4
-7146.76
-1776.92
80.3553
-2894.06
9488.87
-4376.95
12181.3
-5940.38
10956
-7295.95
6038.65
-8171.36
-671.844
-8423.2
-9798.17
-7688.61
-17133.1
-5533.89
-18444.4
-2419.91
-8729.24
406.95
5100.36
15917.8
-3480.73
24537.6
-5147.07
9369.17
-4466.69
-10722.9
-1546.19
-27376
-1845.61
7370.64
-1572.97
-10132.9
-1488.17
-7231.59
-2414.09
1006.23
-3477.16
10551.9
-4828.4
13532.5
-6365.2
12492.8
-7792.99
7466.42
-8803.38
338.521
-9390
-9211.58
-9142.91
-17380.2
-7234.98
-20352.3
-3682.23
-12282
-408.09
1826.2
15229.6
-4320.99
28858.6
-6354.1
11402.3
-5670.08
-11406.9
-1965.83
-31080.2
-1759.89
7164.7
-1628.03
-10264.8
-1711.22
-7148.41
-2770.66
2065.67
-3828.96
11610.2
-5110.02
14813.6
-6608.15
13990.9
-8004.42
8862.7
-9052.85
1386.96
-9901.93
-8362.5
-10181.4
-17100.7
-8878.35
-21655.4
-5169.63
-15990.7
-771.152
-2572.27
13471.3
-5240.47
34099.1
-7728.44
13890.2
-7008.09
-12127.3
-2407.59
-35680.7
-1598.39
6355.49
-1547.55
-10315.6
-1767.65
-6928.34
-2932.65
3230.63
-3985.17
12662.7
-5225.62
16054
-6673.2
15438.5
-7993.48
10183
-9039.82
2433.28
-10002.3
-7400.06
-10570.1
-16532.9
-10008.9
-22216.6
-7345.51
-18654.1
-3709.92
-6207.87
16134.1
-6257.69
40356.8
-9253.99
16886.5
-8469.25
-12912
-2936.38
-41213.6
-1416.67
4835.77
-1307.21
-10425.1
-1657.7
-6577.86
-2962.43
4535.37
-3997.64
13697.9
-5202.84
17259.2
-6612.85
16848.5
-7920.84
11491
-9036.84
3549.3
-10025.3
-6411.64
-10514.8
-16043.4
-10229.4
-22501.9
-8804.08
-20079.5
-5689.34
-9322.61
15609.5
-7381.86
47738.7
-10901.2
20405.9
-10024.6
-13788.6
-3589.4
-47648.8
-1270.7
2517.04
-882.434
-10813.4
-1365.81
-6094.52
-2893.35
6062.89
-3907.23
14711.8
-5072.5
18424.5
-6479.45
18255.4
-7876.87
12888.4
-9169.52
4841.93
-10245.5
-5335.68
-10551.7
-15737.1
-9873.26
-23180.4
-8836.98
-21115.8
-6812.61
-11347
14333.4
-8612.89
56351.6
-12646.1
24439.1
-11637.3
-14797.4
-4356.52
-54929.6
-1133.68
-705.808
-218.851
-11728.2
-913.491
-5399.9
-2732.14
7881.54
-3736.77
15716.4
-4853.32
19541
-6271.25
19673.4
-7765.59
14382.7
-9205.54
6281.9
-10433.8
-4107.43
-10843.3
-15327.6
-9850.6
-24173.1
-8260.22
-22706.1
-6979.28
-12627.9
13447.2
-9972.83
66324.4
-14482.6
28948.8
-13276.1
-16003.8
-4812.73
-63393
-177.955
-5340.61
811.454
-12717.6
-377.339
-4211.19
-2478.41
9982.58
-3496.59
16734.6
-4547.91
20592.4
-5941.48
21066.9
-7416.63
15857.9
-8796.81
7662.06
-10051
-2853.25
-10755.2
-14623.5
-10081.7
-24846.6
-7953.14
-24834.7
-5874.7
-14706.4
12328.3
-11388.7
77713.1
-16343.1
33903.2
-14890.5
-17456.4
-5030.82
-73252.7
1314.66
-11686.1
2293.3
-13696.3
324.654
-2242.53
-2112.57
12419.8
-3190.19
17812.2
-4153.41
21555.6
-5455.86
22369.4
-6778.69
17180.7
-7895.78
8779.17
-8976.32
-1772.7
-9789.81
-13810
-9673.86
-24962.6
-7966.74
-26541.8
-3725.56
-18947.5
9843.35
-13098.5
-17976.1
-16312.3
-5552.54
2287.02
3781.52
1159.05
-1572
-2807.39
-3675.98
-4826.69
-5966.8
-6853.32
-7770.03
-8380.41
-8332.72
-7612.13
-2596.77
-668.742
1643.74
-1079.61
1385.86
-1499.31
1394.7
-1832.26
1307.95
-2124.69
1267.43
-2364.91
1215.23
-2561.27
1171.35
-2713.61
1127.34
-2824.37
1085.76
-2894.63
1045.26
-2925.38
1005.75
-2916.2
965.824
-2864.24
923.038
-2763.35
874.115
-2604.59
816.24
-2377.05
747.45
-2062.83
660.789
-1617.68
529.846
-963.226
320.545
11.7742
-183.274
1827.02
-418.247
1620.84
-666.669
1643.13
-875.34
1516.62
-1075.76
1467.85
-1245.53
1384.99
-1394.21
1320.04
-1517.63
1250.76
-1618.07
1186.2
-1693.25
1120.45
-1738.19
1050.69
-1742.78
970.41
-1695.91
876.167
-1591.48
769.689
-1430.26
655.023
-1211.8
528.992
-923.407
372.393
-540.612
147.052
-119.229
-100.838
-107.455
-163.545
1990.56
-359.641
1816.93
-517.295
1800.78
-644.213
1643.54
-761.449
1585.08
-854.61
1478.15
-937.828
1403.26
-1007.09
1320.02
-1066.55
1245.65
-1111.69
1165.59
-1132.23
1071.23
-1106.11
944.294
-1008.41
778.47
-835.526
596.801
-621.083
440.581
-392.572
300.481
-143.809
123.63
63.9403
-60.6974
170.346
-207.244
62.8912
-64.4322
2054.99
-155.571
1908.07
-228.333
1873.54
-292.993
1708.2
-360.146
1652.24
-415.708
1533.71
-473.899
1461.45
-526.597
1372.72
-580.215
1299.27
-631.759
1217.13
-680.741
1120.21
-718.651
982.204
-729.563
789.382
-697.243
564.48
-629.228
372.566
-546.884
218.137
-482.196
58.9417
-423.582
-119.31
-345.955
-284.871
-283.064
23.0989
2031.89
-42.0722
1973.24
-66.447
1897.92
-84.2433
1726
-100.838
1668.83
-108.438
1541.31
-113.411
1466.42
-109.856
1369.17
-100.576
1289.99
-86.0124
1202.57
-73.4812
1107.68
-76.4024
985.125
-109.073
822.053
-165.591
620.998
-212.206
419.182
-227.488
233.419
-218.438
49.8924
-234.017
-103.731
-217.516
-301.372
-500.579
131.715
1900.18
94.9661
2009.99
120.913
1871.97
158.32
1688.59
206.48
1620.67
257.797
1490
319.393
1404.83
388.372
1300.19
468.388
1209.97
555.506
1115.45
643.759
1019.42
715.279
913.605
744.068
793.263
708.981
656.085
619.347
508.816
497.001
355.765
347.875
199.018
227.955
16.1892
93.4953
-166.912
-407.084
167.75
1732.43
167.096
2010.65
207.22
1831.84
261.332
1634.48
328.463
1553.54
391.926
1426.53
462.795
1333.96
535.408
1227.58
614.432
1130.95
696.24
1033.64
777.591
938.073
848.955
842.241
896.953
745.266
906.858
646.18
871.025
544.65
788.429
438.361
659.086
328.361
471.124
204.151
240.815
63.3966
-166.269
131.122
1601.31
164.102
1977.67
207.645
1788.3
262.172
1579.95
325.907
1489.81
386.856
1365.59
451.14
1269.67
515.222
1163.49
579.382
1066.79
640.256
972.768
695.653
882.676
742.621
795.272
778.065
709.822
797.556
626.689
794.241
547.965
754.83
477.772
662.638
420.553
497.727
369.063
263.356
297.767
97.087
52.2095
1549.1
101.026
1928.85
152.071
1737.26
201.64
1530.38
253.563
1437.88
307.152
1312
361.852
1214.97
421.307
1104.04
487.564
1000.53
567.001
893.332
661.149
788.528
767.58
688.841
876.139
601.264
968.047
534.78
1017.5
498.516
993.161
502.107
871.554
542.161
642.077
598.539
334.913
604.932
432
-51.5513
1600.65
-8.67747
1885.98
23.6665
1704.91
22.9221
1531.13
14.5749
1446.23
-7.15981
1333.73
-34.7576
1242.57
-56.279
1125.56
-55.5529
999.806
-20.1258
857.905
52.4823
715.92
159.923
581.4
293.718
467.468
439.978
388.521
574.981
363.513
660.645
416.443
647.54
555.266
504.783
741.296
257.208
852.507
689.208
-171.115
1771.77
-254.71
1969.57
-335.897
1786.1
-463.697
1658.93
-608.997
1591.53
-777.433
1502.17
-955.942
1421.08
-1132.38
1301.99
-1290.96
1158.39
-1425.45
992.402
-1535.04
825.503
-1614.06
660.424
-1648.51
501.922
-1617.9
357.904
-1503.3
248.911
-1288.92
202.071
-967.284
233.626
-565.7
339.712
-197.728
484.535
491.48
14.6762
1757.09
-139.674
2123.92
-285.935
1932.36
-412.528
1785.52
-536.779
1715.78
-667.036
1632.42
-802.296
1556.34
-943.727
1443.43
-1091.91
1306.57
-1245.75
1146.24
-1403.58
983.332
-1561.78
818.622
-1711.48
651.631
-1832.16
478.577
-1890.2
306.952
-1832.16
144.031
-1607.81
9.27396
-1187.28
-80.8166
-577.826
-124.917
-86.3462
364.08
1393.01
359.44
2128.56
224.486
2067.32
139.091
1870.91
104.538
1750.33
89.0526
1647.91
82.3074
1563.08
67.2028
1458.53
35.0541
1338.72
-18.1304
1199.43
-86.6444
1051.85
-165.295
897.272
-251.067
737.404
-343.015
570.524
-432.569
396.506
-501.17
212.631
-526.571
34.6749
-509.03
-98.3573
-363.938
-270.009
-450.284
503.322
889.688
680.132
1951.75
636.123
2111.33
599.849
1907.19
627.9
1722.28
689.913
1585.9
770.38
1482.62
849.742
1379.17
917.857
1270.6
964.818
1152.47
988.695
1027.97
986.823
899.144
955.799
768.428
889.783
636.54
781.698
504.59
624.313
370.016
424.69
234.298
247.746
78.5862
87.7761
-110.039
-362.508
303.459
586.229
414.346
1840.86
432.994
2092.68
454.299
1885.88
504.574
1672.01
573.461
1517.01
651.903
1404.17
729.694
1301.38
800.324
1199.97
856.971
1095.82
895.399
989.54
912.09
882.453
904.206
776.313
868.806
671.94
803.58
569.817
706.824
466.772
579.006
362.116
415.3
242.292
210.485
94.7757
-152.023
-0.184897
586.414
-10.3631
1851.04
42.0361
2040.28
110.206
1817.71
180.188
1602.03
251.99
1445.21
324.369
1331.8
393.959
1231.79
457.21
1136.72
510.326
1042.7
549.969
949.897
573.655
858.766
580.34
769.628
570.544
681.736
545.655
594.706
503.793
508.633
436.619
429.29
328.511
350.4
164.097
259.189
12.0739
-144.831
731.244
-168.409
1874.62
-80.0877
1951.96
5.40197
1732.22
78.476
1528.95
148.402
1375.28
217.897
1262.3
284.079
1165.61
344.33
1076.47
397.145
989.887
442.433
904.61
481.417
819.782
516.561
734.484
549.552
648.744
575.892
568.365
578.388
506.137
531.825
475.852
412.199
470.027
216.683
454.705
228.757
-142.626
873.87
-154.594
1886.59
-46.694
1844.06
67.2483
1618.28
165.006
1431.19
248.574
1291.71
326.71
1184.16
402.228
1090.09
476.932
1001.77
552.339
914.479
630.202
826.747
711.857
738.127
797.962
648.378
877.577
569.129
925.11
520.832
904.406
526.841
790.763
589.495
579.649
681.14
306.542
727.813
535.299
-19.6283
893.498
-10.8829
1877.84
-6.6497
1839.82
1.58956
1610.04
16.2228
1416.56
30.1424
1277.79
48.8041
1165.5
78.7313
1060.16
125.935
954.561
195.224
845.19
288.542
733.428
406.511
620.158
534.803
520.086
649.665
454.266
715.522
454.975
697.147
545.216
584.495
702.146
393.57
872.066
181.811
939.57
717.11
102.83
312.965
467.08
552.949
604.339
629.936
631.71
613.344
581.349
541.851
503.558
483.438
435.394
376.715
304.461
225.361
151.387
92.4123
48.7119
)
;

boundaryField
{
    outletWallLeft
    {
        type            calculated;
        value           nonuniform List<scalar> 
40
(
-1003.41
-1253.53
-1500.81
-1749.79
-2004.12
-2259.04
-2512.46
-2758.63
-3000.38
-3219.2
-3445.49
-3597.7
-3851.29
-3781.32
-4357.16
-3308.27
-5926.72
258.441
-13988.3
18017
153370
-112817
-86708.9
-14489.8
-3639.62
-2907.69
2841.09
17943.6
30422.5
39181.8
41490.2
37674.2
30345.8
16299.3
-1894.74
-24036.3
-31847.3
-162033
-295383
450424
)
;
    }
    fineWallsLeft
    {
        type            calculated;
        value           uniform 0;
    }
    fineFrontAndBackLeft
    {
        type            calculated;
        value           nonuniform List<scalar> 
880
(
-3.97929e-10
-2.31376e-11
-1.27269e-11
-5.6724e-12
-1.45814e-11
4.38576e-12
-2.69076e-12
-1.04258e-11
1.47013e-12
3.50499e-12
-8.79219e-12
-2.18294e-12
-8.65026e-12
-7.25119e-12
-2.31431e-12
-8.24921e-12
-2.16101e-12
-8.12763e-12
-7.27553e-12
-2.16358e-12
-3.6542e-13
-1.24775e-13
-6.91227e-13
-8.51939e-13
-9.23896e-13
-1.41728e-12
-1.27962e-12
-1.21922e-12
-1.14589e-12
-1.01457e-12
-1.04566e-12
-4.16253e-12
-8.69737e-13
-1.05233e-12
-1.17095e-12
-1.33728e-12
-1.389e-12
-1.39341e-12
-1.29177e-12
-1.56953e-12
-1.70021e-11
-1.79113e-12
-1.66923e-12
-8.65624e-12
-1.15756e-12
-1.1599e-12
-1.19071e-12
-7.51708e-12
-1.2942e-12
-1.33727e-12
-6.0507e-12
-7.94846e-13
-6.2058e-13
-1.72056e-13
1.05368e-11
6.22922e-13
3.93616e-13
8.74953e-13
7.94746e-12
1.40066e-12
1.73095e-11
9.32967e-11
1.36229e-10
1.06583e-10
5.02078e-11
4.15193e-11
1.08144e-11
1.10787e-12
-7.53543e-13
-6.994e-12
-1.14027e-11
-8.21358e-12
-4.21776e-12
-5.33567e-12
-5.49816e-12
-5.44263e-12
-7.2598e-12
-6.55428e-12
1.58913e-11
2.16768e-11
1.12293e-10
1.68013e-10
1.29526e-10
5.83151e-11
4.68263e-11
1.40639e-11
-8.03891e-14
1.21832e-14
-5.98619e-12
-1.11137e-11
-7.59597e-12
-3.9632e-12
-7.14437e-12
-7.56861e-12
-5.93363e-12
-4.71035e-12
-6.06842e-12
9.02458e-12
2.59171e-11
1.3376e-10
2.04789e-10
1.55557e-10
6.70989e-11
4.86725e-11
1.72768e-11
-1.27819e-12
1.83215e-13
-4.21644e-12
-1.04655e-11
-7.41486e-12
-4.63648e-12
-9.58197e-12
-1.05015e-11
-8.59457e-12
-5.22513e-12
-5.1395e-12
-1.65376e-11
2.98708e-11
1.56748e-10
2.44778e-10
1.83706e-10
7.63405e-11
4.65535e-11
2.00139e-11
-1.87813e-12
-7.96344e-13
-1.92378e-12
-9.11478e-12
-7.64218e-12
-5.77005e-12
-1.16039e-11
-1.27445e-11
-1.11977e-11
-8.68375e-12
-5.89554e-12
-1.24364e-11
3.33641e-11
1.80068e-10
2.87059e-10
2.13774e-10
8.69076e-11
4.19956e-11
2.17688e-11
-1.3086e-12
-2.83332e-12
-4.67852e-13
-6.46097e-12
-8.04903e-12
-7.04039e-12
-1.31503e-11
-1.43728e-11
-1.2767e-11
-1.09401e-11
-9.13238e-12
-1.1483e-11
3.62115e-11
2.02623e-10
3.32036e-10
2.46486e-10
1.00607e-10
3.97978e-11
2.2453e-11
5.17128e-13
-5.03751e-12
-9.07086e-13
-3.03807e-12
-8.08374e-12
-8.29123e-12
-1.43739e-11
-1.57046e-11
-1.37829e-11
-1.16011e-11
-1.10613e-11
-1.602e-11
3.8251e-11
2.23508e-10
3.80724e-10
2.83403e-10
1.19067e-10
4.52357e-11
2.28096e-11
3.44505e-12
-5.59021e-12