/*--------------------------------*- C++ -*----------------------------------*\
| =========                 |                                                 |
| \\      /  F ield         | OpenFOAM: The Open Source CFD Toolbox           |
|  \\    /   O peration     | Version:  4.1                                   |
|   \\  /    A nd           | Web:      www.OpenFOAM.org                      |
|    \\/     M anipulation  |                                                 |
\*---------------------------------------------------------------------------*/
FoamFile
{
    version     2.0;
    format      ascii;
    class       volScalarField;
    location    "23";
    object      p;
}
// * * * * * * * * * * * * * * * * * * * * * * * * * * * * * * * * * * * * * //

dimensions      [0 2 -2 0 0 0 0];

internalField   nonuniform List<scalar> 
1280
(
1.06748
0.516054
1.78407
3.2787
4.15301
4.74815
5.20727
5.99286
6.01006
6.01117
6.26129
6.10166
5.11183
4.56632
4.62066
0.75715
-0.821544
-4.72844
-4.81568
-25.5563
-5.60157
15.2337
25.4805
22.8425
21.0947
27.6764
10.739
12.9723
11.1735
10.3748
9.35444
8.35967
7.67375
6.28906
5.27371
3.17211
2.07925
-0.810826
-0.0233818
5.0119
-12.6365
-3.28425
3.24055
8.66858
21.0901
21.1098
21.2146
21.3367
21.0093
21.1885
21.1573
20.9658
21.419
21.4209
21.2385
21.8636
9.54147
4.18816
-2.61068
-6.03074
11.9112
2.14329
-2.72131
-0.521546
0.199052
2.58233
3.73696
5.56423
6.61815
7.64371
8.31743
8.72336
8.89568
-1.85242
30.9724
24.4283
21.6029
23.5156
12.7788
-7.74016
-24.3139
-6.94471
-8.13265
-5.36692
-3.44335
-0.0971244
-0.186494
0.822535
1.75685
1.92495
2.01873
2.04292
2.24252
1.98862
1.93397
1.71627
1.13011
0.703581
0.165693
0.465093
0.0178519
2.24879
1.51796
0.152872
-0.661213
-1.19714
-1.93364
-2.61243
-1.77669
-4.81936
-2.17628
2.9731
5.12246
1.21984
-0.0799223
-0.589471
-0.44775
-0.125774
0.24826
-0.590531
1.9361
-0.608714
-3.26798
-4.26755
-3.35039
-1.1537
1.33119
-0.634905
-4.94402
-0.960966
9.97335
15.6057
5.16757
-0.195316
-2.72072
-1.81395
-0.260577
1.03204
-0.667065
2.65628
-1.31188
-5.32248
-6.45269
-5.35436
-3.33021
-1.24869
-4.13241
-6.50618
-2.42864
14.9564
24.5662
10.0742
-2.0956
-7.48237
-4.35004
-0.68737
1.20972
-1.74923
1.12595
-4.03372
-7.9993
-8.03685
-5.88471
-3.40383
-2.15407
-6.75054
-9.44773
-3.66329
20.5939
34.2388
14.4023
-6.82754
-15.3637
-8.23218
-0.761544
2.26846
-2.39617
0.101358
-5.37446
-9.10194
-8.41588
-5.97821
-3.92892
-4.44975
-10.7817
-12.467
-5.31053
25.6808
41.0973
16.842
-11.6147
-22.5971
-13.3316
-1.57792
2.56427
-2.93406
-1.43589
-6.25151
-9.21024
-7.83248
-5.34921
-3.66903
-5.62485
-13.3804
-13.9501
-6.78139
29.2427
42.6149
18.6711
-12.5791
-24.1935
-15.077
-0.346362
4.26865
-2.8407
-1.94085
-5.94192
-8.18591
-6.49214
-4.27138
-2.92226
-5.79729
-13.6109
-12.9776
-7.06002
30.1956
38.6143
18.7026
-10.349
-23.5316
-14.3875
-1.88113
4.19324
-2.2096
-2.00386
-4.94033
-6.53208
-4.83194
-2.79474
-1.58793
-4.99974
-11.8225
-10.5841
-6.77578
23.8913
30.6186
16.0125
-7.1694
-22.3144
-13.0175
5.14618
7.43706
-0.894049
-1.84706
-3.29906
-4.6386
-3.10109
-1.14726
-0.110681
-4.00604
-9.34473
-8.51087
-7.23674
13.371
19.8588
13.4373
2.161
-7.38232
-4.0929
15.6453
26.0707
1.14095
-1.4419
-1.54086
-2.99154
-1.39621
0.425736
1.20812
-3.20013
-7.04601
-6.98413
-8.54004
2.47427
9.22522
10.833
7.67649
4.23115
10.5637
33.9464
20.9546
2.82626
-0.679776
-0.126353
-1.60316
0.240881
1.79147
2.38708
-2.38665
-5.18856
-6.15676
-11.4132
-8.16538
0.0758362
10.081
13.4714
13.3353
14.625
34.1109
21.4263
3.11765
-0.0527131
0.800011
-0.35155
1.87318
2.95627
3.37437
-1.5393
-3.88344
-5.87702
-15.8674
-15.6352
-4.87896
9.96165
18.5513
21.8618
17.5768
23.5534
27.6733
2.5685
0.0861323
1.4245
0.876878
3.72006
4.15133
4.34586
-0.512327
-3.09794
-5.8459
-20.3641
-19.6325
-7.89086
9.01913
14.9253
20.1583
19.8529
12.9939
1.72088
2.16547
-0.109944
1.88298
2.04185
5.74922
5.47732
5.55631
0.754771
-2.43528
-6.16444
-25.3237
-24.8285
-11.6388
8.48019
15.5224
19.3548
15.9906
5.15119
-0.82643
1.842
-0.561606
2.23171
2.94087
7.52519
6.43476
6.63922
2.04344
-1.73974
-6.73187
-28.535
-28.7024
-13.2259
7.45315
13.8779
17.2226
14.854
7.79601
2.80903
1.35557
-0.96749
2.36259
3.40733
8.52487
6.59876
6.99936
3.05013
-0.983026
-7.02171
-29.6092
-32.3956
-14.4318
5.84111
12.0874
14.6778
12.0436
6.09944
3.89399
0.803143
-1.14073
2.14731
3.30761
8.35606
5.98155
6.33769
3.34846
-0.198828
-6.31825
-27.0198
-33.215
-14.3266
4.13385
9.44122
11.4793
9.41845
5.47112
4.08122
0.387516
-1.00209
1.80643
2.93708
7.17364
4.33832
4.92478
2.93576
0.171446
-5.5343
-22.1354
-29.68
-13.0042
2.57556
6.79293
8.26595
6.51741
3.68396
3.14225
-0.0346239
-0.89643
1.37387
2.49434
5.65545
2.47792
3.03418
1.80364
0.220429
-3.28747
-11.8825
-23.6371
-10.8033
0.838149
4.20547
5.30803
4.02157
2.4053
2.23792
-0.353684
-1.22182
-0.456614
-0.0482526
1.57268
0.545889
0.916688
0.859692
0.0365883
-1.91336
-4.25257
-12.926
-6.87196
-1.02521
1.03832
1.86106
1.39812
0.739109
0.738045
136.485
134.574
133.189
133.083
130.373
127.848
124.651
122.041
119.292
116.913
114.83
112.733
111.242
109.496
108.704
107.058
107.094
105.25
106.272
104.694
78.5897
78.4502
79.9611
81.5271
81.7803
82.0897
81.9168
81.5629
81.7159
81.6287
82.0207
81.9893
82.5232
82.4034
83.2278
82.8985
84.1397
83.7089
85.4561
85.699
94.2366
93.0416
94.6476
95.0438
94.9911
94.7021
94.5242
94.0657
93.9347
93.4909
93.4277
93.105
93.2711
92.9383
93.4186
92.8769
93.756
93.0293
94.4294
94.3471
77.2696
76.6308
78.6325
78.8065
79.552
79.169
79.4351
79.1514
79.2887
79.1148
79.2381
79.2236
79.5855
79.5998
80.3274
80.1746
81.3022
80.9768
82.5539
82.9929
81.8103
81.0143
82.8696
82.2905
83.6783
82.5313
82.9606
82.3992
82.2901
81.9792
81.759
81.6019
81.6169
81.4959
81.9385
81.7217
82.6589
82.2938
83.7992
83.9314
76.766
76.542
78.0659
77.3091
79.5969
77.6839
78.34
77.8882
77.6087
77.4647
77.0394
76.9332
76.7982
76.6515
77.0244
76.851
77.825
77.6473
79.3472
79.5295
77.0049
77.4347
78.1981
77.4978
80.811
78.0092
78.7232
78.7589
78.1316
78.3408
77.6461
77.5816
77.2837
76.9621
77.2148
76.8264
77.7051
77.4787
79.2313
79.2754
72.528
73.9871
73.8397
73.5206
78.2042
74.3915
75.061
76.2268
75.1769
76.0035
75.2719
75.3887
75.1739
74.8782
75.1585
74.7696
75.6474
75.5148
77.4243
77.579
66.9048
69.358
68.0948
68.0443
74.2949
69.6167
69.9007
72.4427
71.2029
72.3843
71.9174
72.0606
72.0455
71.81
72.0618
71.7834
72.5041
72.4896
74.3419
74.6099
55.7124
58.9142
56.3822
56.6379
65.2065
59.3981
59.1566
63.6063
62.7737
64.1389
64.5842
65.0259
65.8054
66.1703
66.9823
67.4289
68.4525
69.1606
71.0364
72.3968
41.9491
44.2443
40.6403
40.3084
47.9052
42.8291
41.7059
45.1202
44.9417
44.4965
44.9322
44.2614
44.7062
44.3143
44.6592
44.5157
45.1073
45.888
47.6445
50.0363
43.4954
43.926
44.5848
42.9259
43.9105
39.0785
41.5485
38.2429
39.9768
37.2603
38.0285
36.0771
36.1521
34.7519
34.6802
33.7864
34.3352
34.4516
35.3915
35.4544
46.7472
48.2179
49.3019
48.1067
50.831
48.314
50.3886
47.6788
49.3838
47.4652
48.2106
47.1075
47.2732
46.6391
46.5362
46.0486
46.0225
45.4088
44.9331
44.6345
31.6627
33.177
35.3305
34.388
37.733
36.4434
39.7618
38.2061
40.8393
41.0408
42.4717
43.0468
43.8703
44.5958
45.4569
46.2019
46.7928
47.2619
48.0093
49.0719
15.0717
14.2644
15.9979
13.6205
15.6031
13.5918
14.6349
13.5241
13.6072
13.1213
12.8851
12.5883
12.4071
12.5108
13.2668
15.1767
17.2765
18.7527
19.6959
21.5933
30.1029
27.24
28.4649
24.3925
25.5944
22.6839
22.6803
21.0077
20.3648
19.2541
18.452
17.5703
16.8293
16.2158
15.8018
15.5465
15.437
15.3016
14.6324
15.0624
61.9166
58.2996
60.4044
53.9947
54.425
50.1139
48.5159
45.6458
43.5618
41.3638
39.4742
37.7563
36.3188
35.2
34.3676
33.6656
33.0725
32.4611
31.6976
30.726
57.768
51.9971
60.2825
53.7393
56.179
53.2214
52.4284
50.3358
48.5751
46.5373
44.5453
42.5524
40.6911
39.0676
37.7668
36.7172
36.018
36.2595
36.6153
36.7222
66.242
44.6397
52.9054
42.0887
39.6032
33.2201
28.5534
23.5717
19.3036
15.5257
12.4771
10.2162
8.86356
8.53643
9.39688
11.3153
14.1795
18.6033
22.6168
24.7276
753.67
671.174
622.217
565.955
517.025
469.819
425.975
384.601
345.707
309.008
274.33
241.459
210.162
180.353
152.078
124.547
97.8979
76.4335
52.2948
15.2046
736.476
653.399
604.112
547.425
498.124
450.534
406.33
364.61
325.403
288.432
253.549
220.567
189.271
159.576
131.525
104.327
78.5715
59.0685
36.2112
-1.13798
38.7989
16.5154
24.4072
13.0387
9.99298
3.05168
-2.19598
-7.73228
-12.542
-16.8217
-20.3373
-23.0428
-24.855
-25.6976
-25.486
-24.2154
-21.8349
-18.9201
-16.3695
-13.461
23.1271
17.7704
26.1194
19.8333
22.2968
19.5557
18.8597
16.992
15.4353
13.6595
11.9275
10.1797
8.46627
6.82954
5.35369
4.36297
4.17326
5.64556
7.40969
10.6991
45.6714
44.4744
47.6879
42.871
45.1334
42.4119
42.7296
41.6985
41.5794
41.3701
41.4636
41.621
41.8453
42.1218
42.4513
42.9568
43.8098
45.6793
47.783
50.3727
48.0508
47.8273
50.1997
47.752
51.0014
49.7304
51.9017
52.2962
53.899
54.9882
56.2976
57.4857
58.6744
59.7551
60.9875
61.9547
62.5888
62.997
63.3399
62.9415
45.7676
43.4337
44.2215
40.8946
42.2513
39.2977
40.5665
39.1937
38.8718
37.4032
36.632
35.5488
32.5657
35.5365
36.3118
35.8251
35.7216
35.3322
34.2691
32.7955
-11.8649
-15.6158
-16.8519
-21.8203
-23.5325
-29.063
-31.905
-37.3169
-42.0297
-47.6074
-53.6593
-58.0702
-64.9989
-28.5688
2.31028
-1.79788
-3.34193
-4.28506
-6.79886
-2.81315
-26.9047
-27.2712
-25.8929
-27.5379
-25.6057
-27.0373
-25.3502
-25.9738
-25.0863
-24.4872
-23.639
-21.7276
-19.1863
-17.2872
-15.1438
-16.8981
-13.4606
-7.81077
-14.2317
-8.39106
5.37973
8.56331
11.2473
11.8118
15.4698
15.8148
18.9569
19.7041
22.1976
23.6314
25.7838
27.3482
29.5711
31.5522
34.1409
36.1663
39.6812
43.7538
43.8422
47.7366
41.8015
45.9776
47.7435
49.0531
51.6682
52.7654
55.0966
56.3145
58.3508
59.7614
61.7134
63.2379
64.9177
66.2565
67.3664
68.5461
69.7876
71.43
72.8978
75.8391
64.8434
68.2485
68.7721
69.9824
71.3985
71.9293
73.2999
73.7558
74.8297
75.2585
76.1757
76.5571
77.1931
77.3361
77.5713
77.5686
78.105
78.1448
79.6315
80.2293
73.2616
75.2432
75.0116
75.7682
76.0812
75.921
76.3989
76.0071
76.3246
75.8591
76.0536
75.5925
75.6742
75.1901
75.2451
74.8008
75.3242
75.0718
76.9227
76.7848
73.5591
74.5941
74.6497
75.3031
75.3808
75.0318
75.3645
74.7481
74.9576
74.3712
74.5387
74.1402
74.377
74.1495
74.6692
74.6349
75.7305
75.9098
78.1455
78.4719
78.566
79.2762
80.1165
81.033
81.1833
81.0358
81.2896
80.8387
81.0834
80.6987
80.9608
80.7495
81.1573
81.0812
81.8443
81.951
83.2318
83.5259
85.5903
86.0735
83.5763
84.1136
85.4378
86.7454
86.6627
86.7431
86.6458
86.3313
86.4166
86.0348
86.2701
85.9153
86.3174
85.9701
86.6191
86.3038
87.2672
87.1233
88.7204
89.0221
91.124
90.8498
92.0742
93.2843
92.6322
92.6297
91.9988
91.5495
91.2313
90.5988
90.5629
89.8388
90.0226
89.2353
89.603
88.7535
89.3111
88.5813
89.7059
89.6291
83.4524
82.8835
84.035
85.304
84.3784
84.4811
83.6818
83.316
82.8999
82.3265
82.2921
81.6686
81.9592
81.3053
81.8498
81.1178
81.8723
81.2202
82.3988
82.5658
94.1332
92.8646
93.739
94.7623
93.5666
93.5172
92.461
91.9555
91.2634
90.571
90.259
89.5293
89.5547
88.7833
89.0956
88.2076
88.7991
87.8572
88.9083
88.675
74.457
74.1591
74.8634
76.8983
75.9309
76.3422
75.5355
75.4895
75.094
74.8643
74.8644
74.5386
74.8916
74.5278
75.1766
74.7543
75.7487
75.2396
76.6644
76.9568
124.818
123.159
121.132
122.014
118.297
116.38
113.192
110.597
107.563
105.118
102.909
100.822
99.3877
97.7017
97.0547
95.5019
95.7373
93.914
94.8841
93.8565
)
;

boundaryField
{
    outletWall
    {
        type            fixedValue;
        value           uniform 0;
    }
    fineWalls
    {
        type            zeroGradient;
    }
    fineFrontAndBack
    {
        type            zeroGradient;
    }
    fineplugLeft
    {
        type            cyclicAMI;
        value           nonuniform List<scalar> 
20
(
84.7577
85.0131
84.0378
86.0911
86.2809
88.0183
88.8549
90.5283
91.8584
93.7351
95.6051
97.6683
100.227
111.699
107.814
108.518
111.035
111.647
110.706
108.068
)
;
    }
    fineplugRight
    {
        type            cyclicAMI;
        value           nonuniform List<scalar> 
20
(
77.4674
76.3359
74.5869
76.4856
76.4413
78.1603
78.9088
80.623
81.9814
83.8556
85.7578
87.7951
90.2566
100.11
99.2986
99.5232
101.932
101.609
101.083
98.306
)
;
    }
    inletOutletLeft
    {
        type            cyclicAMI;
        value           nonuniform List<scalar> 
20
(
84.7577
85.0131
84.0378
86.0911
86.2809
88.0183
88.8549
90.5283
91.8584
93.7351
95.6051
97.6683
100.227
111.699
107.814
108.518
111.035
111.647
110.706
108.068
)
;
    }
    inletLeft
    {
        type            zeroGradient;
    }
    inletWallsLeft
    {
        type            zeroGradient;
    }
    inletFacesLeft
    {
        type            zeroGradient;
    }
    inletOutletRight
    {
        type            cyclicAMI;
        value           nonuniform List<scalar> 
20
(
77.4674
76.3359
74.5869
76.4856
76.4413
78.1603
78.9088
80.623
81.9814
83.8556
85.7578
87.7951
90.2566
100.11
99.2986
99.5232
101.932
101.609
101.083
98.306
)
;
    }
    inletRight
    {
        type            zeroGradient;
    }
    inletWallsRight
    {
        type            zeroGradient;
    }
    inletFacesRight
    {
        type            zeroGradient;
    }
}


// ************************************************************************* //
