/*--------------------------------*- C++ -*----------------------------------*\
| =========                 |                                                 |
| \\      /  F ield         | OpenFOAM: The Open Source CFD Toolbox           |
|  \\    /   O peration     | Version:  4.1                                   |
|   \\  /    A nd           | Web:      www.OpenFOAM.org                      |
|    \\/     M anipulation  |                                                 |
\*---------------------------------------------------------------------------*/
FoamFile
{
    version     2.0;
    format      ascii;
    class       surfaceScalarField;
    location    "23";
    object      phi;
}
// * * * * * * * * * * * * * * * * * * * * * * * * * * * * * * * * * * * * * //

dimensions      [0 3 -1 0 0 0 0];

internalField   nonuniform List<scalar> 
2360
(
-7403.32
-4927.47
-2475.86
-4927.47
-4927.47
-2538.62
-2388.84
-2538.62
-2538.62
-2538.63
161.348
-2699.97
161.347
161.348
3403.7
-3242.36
3403.7
3403.7
7315.11
-3911.4
7315.1
7315.11
12779.8
-5464.72
12779.8
12779.8
14053.2
15787.8
17286.2
18574.5
19776.9
21014.4
17073.6
5168.28
18205
19226.1
20161.1
21034.8
21862.6
22642.1
23372.7
24045.7
24664.1
25209.7
25721.8
26340.2
27111.5
12324.4
14787.1
12324.4
12324.4
12324.4
87.0306
12237.4
87.0309
87.0297
87.0298
48.0275
39.0015
48.0271
48.0264
-268.763
316.789
-268.764
-268.765
-268.765
-12606
12337.2
-12605.9
-12605.9
-12605.9
-27059.1
14453.2
-26093.8
-25322.4
-24828.7
-24375.1
-23853.2
-23262.9
-22592.2
-21847.7
-21023.2
-20128.8
-19164.9
-18132.7
-17024
-20385.4
4542.82
-19139.4
-17832.8
-16467.8
-15021.8
-13283.2
-12101.9
-12101.9
-12101.9
-7564.18
-4537.75
-7564.18
-7564.18
-4107.01
-3457.18
-4107.01
-4107.01
-1085.92
-3021.09
-1085.92
-1085.92
1483.7
-2569.62
1483.7
1483.7
1483.7
3349.19
-1865.48
3349.19
3349.19
5364.88
-2015.69
-4505.82
-2102.16
-7070.68
-6711.85
-9616.51
-4477.63
-10891.1
-3966.5
-11080.5
-7489.14
-10406.9
-11960.1
-8781.95
-15512.3
-5896.86
-15160.3
-2262.1
-6054.64
-283.594
7929.5
310.714
14837.1
830.52
14424
1733.81
7020.65
2737.63
-2890.98
3287.39
-3429.07
3077.46
627.814
2605.23
2670.37
2314.13
2428.48
-168.567
-5204.88
-687.87
-8292.14
-3624.59
-10882.1
-1887.69
-11522.6
-3326.02
-10793.3
-8218.39
-9538.17
-13215.2
-8133.62
-16916.8
-6275.79
-17018.1
-3082.42
-9248.01
-592.639
5439.72
29.5034
14214.9
573.881
13879.6
2289.98
5304.55
4161.71
-4762.71
5138.79
-4406.15
4528.2
1238.4
3312.2
3886.38
2472.12
3268.55
438.07
-6138.26
812.285
-8837.41
-925.435
-10390.4
-334.709
-9913.43
-3802.98
-8411.79
-9720.03
-6945.48
-14681.5
-5906.67
-17955.6
-5235.64
-17689.1
-4055.84
-10427.8
-1794.49
3178.37
-568.95
12989.4
-27.6774
13338.3
2603.75
2673.13
5336.77
-7495.73
6605.86
-5675.24
5973.97
1870.29
4392.97
5467.38
3144.43
4517.09
1012.88
-6861.11
2373.6
-9049.98
1263.44
-9389.38
4.69402
-7900.54
-5291.82
-6158.52
-11462
-5030.11
-15809.9
-4430.97
-18554.8
-4256.02
-17864.1
-4347.66
-10336.2
-3294.05
2124.75
-1942.47
11637.8
-996.002
12391.9
2238.1
-560.976
5023.68
-10281.3
6294.62
-6946.19
6330.96
1833.94
5061.06
6737.29
3746.02
5832.13
1737.81
-7334.23
3724.75
-8552.58
2481.79
-7580.79
-967.088
-5562.07
-7310.54
-4178.28
-12845.8
-3737.73
-16250.5
-3797.48
-18495
-4189.63
-17471.9
-4939.33
-9586.47
-5037.19
2222.62
-4010.07
10610.7
-2327.02
10708.8
121.352
-3009.35
1156.41
-11316.4
2473.66
-8263.44
4110.7
196.903
4510.58
6337.41
3906.05
6436.65
2186.68
-7496.24
4676.23
-7512.16
2497.72
-5404.71
-3074.54
-3352.29
-9362.97
-2600.32
-13597.8
-2843.3
-16007.5
-3605.13
-17733.2
-4847.22
-16229.8
-6360.95
-8072.74
-7087.97
2949.63
-6354.25
9876.99
-4419.76
8774.31
-3999
-3430.1
-4504.92
-10810.4
-2568.94
-10199.4
337.473
-2709.51
2328.61
4346.28
3303.39
5461.88
952.319
-7230.66
4980.31
-5841.17
1108.22
-3077.9
-5837.81
-1518.66
-10922.2
-1421.29
-13695.2
-2240.9
-15187.9
-3660.85
-16313.2
-5820
-14070.7
-8236.14
-5656.6
-9281.38
3994.88
-8821.36
9416.97
-8132.93
8085.88
-9077.88
-2485.15
-9493.68
-10394.6
-7443.83
-12249.3
-3530.53
-6622.8
-82.6482
898.397
1973.87
3405.36
7469
-6361.47
4398.65
-3780.39
-1472.86
-1219.16
-8399.04
-480.819
-11660.5
-861.37
-13314.6
-2117.48
-13931.8
-4035.86
-14394.9
-6776.83
-11329.7
-9636.98
-2796.44
-10922.7
5280.63
-11215.2
9709.43
-11872.6
8743.29
-13165.1
-1192.69
-13634.7
-9924.97
-12770.7
-13113.3
-9975.49
-9418.06
-7248.6
-1828.49
-8775.46
4932.22
13146.7
-4962.25
2884.68
-2060.12
-4374.99
-486.229
-9972.93
-398.875
-11747.9
-1042.12
-12671.4
-2561.2
-12412.7
-4740.82
-12215.2
-7581
-8489.51
-10361.4
-16.0845
-12014.9
6934.12
-13206.5
10901
-14255
9791.83
-14969
-478.671
-15542.3
-9351.72
-16427
-12228.5
-16693.1
-9151.97
-16005.8
-2515.83
-15050.4
3976.86
10433.5
-3767.55
970.817
-1606.01
-6536.53
-994.172
-10584.8
-1034.53
-11707.5
-1807.47
-11898.4
-3432.12
-10788.1
-5676.52
-9970.83
-8239.75
-5926.28
-10544.3
2288.45
-12469.1
8858.97
-14164.7
12596.6
-14647.1
10274.3
-14059.4
-1066.35
-14277.7
-9133.47
-15659.8
-10846.4
-15893.5
-8918.22
-14360.6
-4048.76
-10191.9
-191.815
558.338
-3632.42
-464.821
-2458.95
-7710
-2007.08
-11036.6
-1918.01
-11796.6
-2743.78
-11072.7
-4409.97
-9121.87
-6686.04
-7694.76
-8916.31
-3696.02
-10613.1
3985.28
-12490.5
10736.3
-14169.9
14275.9
-13359.7
9464.14
-10854.8
-3571.26
-10523.5
-9464.8
-13278.5
-8091.44
-15308.5
-6888.21
-14329.4
-5027.83
-9871.43
-4649.77
-9274.09
-4425.9
-1224.24
-3603.77
-8532.12
-2797.81
-11842.6
-2653.5
-11940.9
-3482.61
-10243.6
-5266.78
-7337.7
-7646.54
-5315.01
-9700.34
-1642.21
-10889.2
5174.1
-12333.3
12180.5
-13491.5
15434.1
-11336.2
7308.91
-7424.97
-7482.53
-5442.05
-11447.7
-6921.77
-6611.72
-10922.3
-2887.64
-14335.5
-1614.65
-15025.8
-3959.46
-12062.6
-5277.7
-1891.18
-4228.78
-9581.05
-3240.92
-12830.5
-3077.56
-12104.3
-3916.7
-9404.41
-5961.26
-5293.14
-8494.14
-2782.13
-10567.3
430.911
-11553.5
6160.38
-12333.1
12960.1
-12674.9
15775.8
-10120.7
4754.78
-6673.91
-10929.4
-4122.04
-13999.6
-1255.36
-9478.39
-347.137
-3795.87
-3944.41
1982.62
-9456.65
1552.77
-6732.05
-5738.7
-2938.51
-4362.4
-10957.3
-3474.14
-13718.7
-3237.08
-12341.3
-4081.47
-8560.02
-6378.15
-2996.46
-8890.44
-269.835
-10894.1
2434.58
-12010
7276.24
-12370.9
13321
-11585
14990
-8324.77
1494.51
-5254.85
-13999.3
-3342.19
-15912.2
-1299.16
-11521.4
1178.33
-6273.36
3480.95
-319.998
3093.68
1940.05
1529.91
-5860.59
-4372.94
-4272.18
-12545.8
-3582.09
-14408.8
-3264.73
-12658.7
-3983.43
-7841.31
-6254.39
-725.508
-8465.92
1941.7
-10197.1
4165.75
-11440.8
8519.91
-11736.8
13617
-10025.9
13279.1
-6188.15
-2343.2
-3389.36
-16798.1
-1654.89
-17646.7
11.3552
-13187.7
1558.11
-7820.12
3177.42
-1939.31
4811.13
306.35
876.318
-5596.54
-5795.99
-4132.77
-14009.5
-3616.93
-14924.7
-3224.49
-13051.1
-3597.09
-7468.71
-5514.91
1192.31
-7389.87
3816.66
-8812.82
5588.7
-9923.75
9630.84
-10144.1
13837.3
-7973.2
11108.2
-4122.67
-6193.73
-1792.62
-19128.1
-414.716
-19024.6
997.181
-14599.6
2224.48
-9047.41
3415.37
-3130.21
4118.71
-396.986
1083.63
-5070.34
-6850.63
-4020.22
-15059.6
-3613.26
-15331.6
-3136.77
-13527.6
-3025.74
-7579.74
-4402.01
2568.58
-6026.56
5441.21
-7189.9
6752.04
-7961.27
10402.2
-7936.11
13812.1
-5660.27
8832.36
-2219.25
-9634.75
-359.32
-20988.1
650.177
-20034.1
1685.67
-15635.1
2535.06
-9896.8
3336.76
-3931.9
3644.5
-704.726
1485.77
-4562.23
-7465.54
-3944.88
-15677
-3583.88
-15692.6
-3037.39
-14074.1
-2458.45
-8158.69
-3258.93
3369.07
-4653.22
6835.51
-5598.85
7697.67
-5924.02
10727.4
-5526.2
13414.3
-3237.9
6544.06
-517.351
-12355.3
725.175
-22230.6
1451.19
-20760.1
2127.62
-16311.5
2695.84
-10465
3234.65
-4470.71
3278.23
-748.305
2064.02
-4230.18
-7727.15
-3905.87
-16001.3
-3539.47
-16059
-2975.47
-14638.1
-2051.31
-9082.84
-2241.36
3559.11
-3393.57
7987.72
-4334.09
8638.19
-4364.43
10757.7
-3519.18
12569.1
-1034.91
4059.79
863.976
-14254.2
1454.43
-22821
1959.4
-21265.1
2364.65
-16716.7
2691.07
-10791.4
2972.93
-4752.57
2927.68
-703.056
2602.86
-4102.17
-3870.17
-3495.28
-2954.25
-2077.13
-1622.1
-2109.39
-2818.8
-2764.27
-1799.47
215.202
1465.62
1863.72
2206.88
2466.06
2643.54
2760.29
2810.69
265.023
-1538.39
468.271
-1937.88
600.795
-1630.86
696.777
-1384.35
814.483
-1320.12
953.525
-1376.48
1007.84
-1281.78
999.672
-1123.27
969.516
-990.891
939.479
-905.002
903.226
-837.399
852.428
-777.051
778.339
-705.448
683.271
-635.44
566.602
-556.349
438.073
-489.862
297.358
-404.913
175.606
-390.396
85.047
-527.843
-686.253
104.037
-1642.43
70.4221
-1904.27
87.3355
-1647.78
100.725
-1397.74
139.611
-1359
198.08
-1434.95
188.514
-1272.22
153.211
-1087.96
141.018
-978.698
152.607
-916.59
164.758
-849.55
165.913
-778.205
149.194
-688.729
118.337
-604.583
74.6798
-512.692
32.4632
-447.645
1.87071
-374.321
-6.45343
-382.073
-11.88
-522.418
-698.133
13.1768
-1655.61
32.7701
-1923.86
102.609
-1717.61
132.586
-1427.71
160.814
-1387.23
192.186
-1466.32
158.453
-1238.48
150.922
-1080.43
173.843
-1001.62
200.953
-943.7
214.254
-862.851
215.658
-779.608
205.825
-678.895
186.983
-585.741
154.43
-480.138
116.655
-409.87
87.9432
-345.609
62.7019
-356.831
26.6503
-486.366
-671.483
-4.45846
-1651.15
23.3817
-1951.7
67.0486
-1761.28
73.4684
-1434.13
93.3889
-1407.15
116.02
-1488.95
83.6848
-1206.15
88.0746
-1084.82
108.985
-1022.53
129.669
-964.383
142.351
-875.532
151.909
-789.166
156.768
-683.753
158.137
-587.11
143.606
-465.607
113.951
-380.214
83.4246
-315.082
58.0055
-331.412
30.1496
-458.509
-641.333
-18.5367
-1632.61
-1.93137
-1968.3
29.5235
-1792.73
30.8522
-1435.46
46.0387
-1422.34
59.3848
-1502.3
49.1283
-1195.89
66.7801
-1102.47
83.1575
-1038.91
96.9328
-978.158
107.81
-886.409
120.558
-801.913
134.257
-697.451
151.912
-604.765
160.523
-474.217
150.366
-370.057
127.805
-292.522
97.7629
-301.369
56.9269
-417.673
-584.406
-9.12219
-1623.49
-1.61864
-1975.81
24.108
-1818.46
30.4394
-1441.79
43.7131
-1435.61
52.3807
-1510.96
57.0985
-1200.61
72.2943
-1117.67
79.9696
-1046.58
86.796
-984.984
93.2752
-892.887
100.424
-809.061
107.359
-704.386
118.689
-616.095
131.788
-487.315
133.885
-372.153
120.496
-279.133
93.5882
-274.461
57.7006
-381.785
-526.706
1.90634
-1625.39
-0.582976
-1973.32
17.2204
-1836.26
28.0498
-1452.62
38.0602
-1445.62
42.259
-1515.16
53.1819
-1211.53
67.5885
-1132.07
74.4742
-1053.47
78.864
-989.373
84.0246
-898.048
87.2092
-812.246
89.7395
-706.916
89.8281
-616.183
99.8946
-497.382
111.372
-383.63
114.748
-282.509
99.092
-258.804
66.124
-348.817
-460.582
27.6431
-1653.03
18.3621
-1964.04
31.6783
-1849.58
53.5922
-1474.53
64.7429
-1456.77
65.3087
-1515.73
78.4157
-1224.64
94.1052
-1147.76
104.906
-1064.27
109.68
-994.148
116.964
-905.332
120.713
-815.994
126.702
-712.905
124.603
-614.084
130.215
-502.993
139.104
-392.519
145.614
-289.019
131.792
-244.982
90.5227
-307.547
-370.059
55.2815
-1708.31
39.449
-1948.2
46.4066
-1856.53
82.1838
-1510.31
97.2132
-1471.8
91.8094
-1510.32
114.096
-1246.92
135.103
-1168.77
155.537
-1084.7
166.612
-1005.22
181.091
-919.81
190.908
-825.811
204.568
-726.565
212.362
-621.878
222.833
-513.464
230.294
-399.979
231.337
-290.062
206.922
-220.566
138.189
-238.814
-231.871
65.1004
-1773.41
52.001
-1935.1
48.1085
-1852.64
104.12
-1566.32
128.19
-1495.87
109.537
-1491.67
153.366
-1290.75
183.372
-1198.78
217.644
-1118.97
239.833
-1027.41
264.98
-944.957
284.476
-845.306
305.397
-747.485
324.1
-640.581
343.958
-533.322
357.766
-413.788
355.048
-287.344
320.364
-185.882
212.624
-131.074
-19.247
54.056
-1827.47
56.9672
-1938.01
33.8118
-1829.49
101.057
-1633.57
145.471
-1540.28
111.668
-1457.87
172.108
-1351.19
210.054
-1236.72
254.213
-1163.13
290.352
-1063.55
328.982
-983.588
363.447
-879.771
396.784
-780.823
428.013
-671.809
457.419
-562.729
475.553
-431.921
450.861
-262.652
368.18
-103.202
153.911
83.194
134.664
26.467
-1853.94
31.5212
-1943.07
14.1291
-1812.09
35.9554
-1655.39
64.7836
-1569.11
45.6746
-1438.76
66.2005
-1371.72
84.6364
-1255.16
100.786
-1179.28
118.013
-1080.78
132.466
-998.041
145.316
-892.621
152.632
-788.14
153.305
-672.482
142.014
-551.44
107.518
-397.425
19.998
-175.133
-85.6867
2.48248
-134.628
132.134
0.0365286
30.8435
-1884.78
32.806
-1945.03
46.2275
-1825.52
45.45
-1654.62
57.8219
-1581.48
64.7805
-1445.72
56.1289
-1363.07
54.8112
-1253.84
47.0332
-1171.5
41.4597
-1075.2
30.4489
-987.031
22.2984
-884.47
11.4891
-777.331
-5.16114
-655.832
-38.5877
-518.013
-79.0351
-356.978
-107.348
-146.821
-117.802
12.9362
-34.9823
49.3137
-34.9458
71.9279
-1956.71
69.6411
-1942.74
92.8352
-1848.71
113.669
-1675.45
141.571
-1609.38
167.453
-1471.6
193.86
-1389.47
223.428
-1283.41
249.372
-1197.45
278.226
-1104.06
305.819
-1014.62
335.866
-914.517
356.521
-797.986
357.687
-656.998
345.117
-505.443
337.746
-349.608
374.221
-183.295
398.434
-11.2773
290.985
156.762
256.039
70.6351
-2027.35
42.6517
-1914.76
57.1574
-1863.22
72.6558
-1690.95
96.7534
-1633.48
128.477
-1503.32
165.342
-1426.34
207.187
-1325.26
253.005
-1243.27
304.902
-1155.95
358.627
-1068.35
404.027
-959.918
418.41
-812.37
380.159
-618.748
299.316
-424.6
208.009
-258.301
135.569
-110.856
96.221
28.0701
53.5582
199.424
309.597
2.13445
-2029.48
-49.6734
-1862.95
-76.9455
-1835.95
-102.862
-1665.03
-129.871
-1606.47
-151.455
-1481.74
-173.795
-1404
-191.971
-1307.08
-208.798
-1226.44
-223.437
-1141.32
-238.943
-1052.85
-260.142
-938.719
-291.498
-781.015
-325.047
-585.2
-345.468
-404.181
-333.342
-270.428
-287.939
-156.259
-163.973
-95.8976
-121.172
156.622
188.425
-44.2874
-1985.19
-108.119
-1799.12
-157.494
-1786.57
-199.426
-1623.1
-242.857
-1563.04
-274.439
-1450.16
-308.213
-1370.23
-335.644
-1279.65
-363.452
-1198.63
-388.37
-1116.4
-409.601
-1031.61
-416.068
-932.253
-387.123
-809.961
-301.24
-671.083
-168.686
-536.735
-33.8448
-405.271
43.4827
-233.591
-44.5159
-7.90275
-61.8937
173.998
126.532
-144.671
-1840.52
-316.819
-1626.98
-452.158
-1651.23
-552.933
-1522.33
-642.789
-1473.19
-704.593
-1388.36
-753.257
-1321.56
-783.784
-1249.12
-801.233
-1181.18
-804.237
-1113.4
-789.455
-1046.4
-745.216
-976.493
-655.568
-899.608
-515.566
-811.086
-347.513
-704.789
-184.561
-568.223
-45.4915
-372.661
-9.10013
-44.2963
40.006
124.891
166.538
-195.076
-1645.45
-434.727
-1387.32
-686.192
-1399.77
-895.461
-1313.06
-1095.45
-1273.2
-1262.4
-1221.4
-1406.13
-1177.84
-1521.6
-1133.65
-1611.55
-1091.24
-1675.71
-1049.24
-1714.14
-1007.96
-1724.01
-966.632
-1700.3
-923.31
-1637.16
-874.234
-1527.7
-814.246
-1358.5
-737.426
-1097.83
-633.324
-661.89
-480.24
-257.188
-279.813
-90.6499
-670.447
-1082.77
-1507.54
-1845.6
-2143.8
-2390.2
-2593.04
-2751.69
-2867.93
-2942.17
-2975.12
-2966.76
-2915.07
-2814.3
-2653.55
-2415.97
-2074.3
-1579.54
-884.35
-680.683
1655.68
-1104.76
1399.07
-1541.24
1411.48
-1892.6
1326.36
-2205.2
1287.59
-2467.52
1237.32
-2687.63
1195.11
-2864.89
1152.25
-3000.74
1110.85
-3095
1069.26
-3147.35
1027.35
-3157.09
984.745
-3123.1
941.005
-3040.8
892.695
-2895.03
829.234
-2652.89
732.856
-2264.76
586.87
-1683.06
393.299
-904.39
196.328
70.6104
-207.138
1862.81
-454.096
1646.02
-714.641
1672.02
-929.425
1541.14
-1134.18
1492.34
-1303.48
1406.62
-1448.21
1339.84
-1563.15
1267.19
-1651.47
1199.16
-1712.91
1130.69
-1748.54
1062.97
-1758.5
994.705
-1742.28
924.785
-1695
845.419
-1603.38
737.604
-1442.33
571.812
-1185.57
330.107
-830.096
37.8193
-430.933
-202.839
-360.323
-113.878
1976.69
-252.017
1784.16
-355.464
1775.46
-412.282
1597.95
-459.11
1539.17
-469.56
1417.07
-463.019
1333.29
-431.527
1235.7
-381.653
1149.28
-314.539
1063.57
-234.07
982.499
-140.991
901.62
-34.665
818.453
82.8946
727.854
199.411
621.082
286.913
484.306
306.255
310.758
237.815
106.252
102.917
-67.9494
-257.406
22.6796
1954.01
18.1807
1788.66
31.3598
1762.28
57.3576
1571.95
82.5755
1513.95
125.951
1373.69
170.461
1288.78
223.549
1182.61
280.684
1092.14
350.204
994.051
437.794
894.906
546.187
793.224
671.24
693.396
805.192
593.9
930.993
495.278
1005.57
409.722
959.656
356.674
753.772
312.134
426.134
259.684
168.728
-2.15661
1956.16
-23.2047
1809.7
-35.6112
1774.69
-63.128
1599.47
-90.666
1541.48
-136.189
1419.21
-195.811
1348.4
-257.348
1244.14
-317.168
1151.96
-364.699
1041.58
-381.149
911.351
-366.925
778.998
-346.819
673.284
-308.254
555.33
-225.072
412.088
-119.466
304.107
23.8438
213.354
128.646
207.32
128.058
260.26
296.785
-66.4042
2022.57
-162.323
1905.62
-243.899
1856.26
-343.681
1699.25
-440.909
1638.71
-550.589
1528.89
-670.382
1468.19
-799.762
1373.52
-937.776
1289.97
-1071.14
1174.95
-1196.19
1036.4
-1285.7
868.516
-1370.76
758.34
-1438.73
623.297
-1579.33
552.691
-1494.06
218.832
-1300.37
19.6563
-959.298
-133.753
-514.929
-184.117
-218.143
33.6869
1988.88
-39.0429
1978.36
-61.3497
1878.57
-82.5158
1720.42
-96.8016
1653
-99.9499
1532.05
-89.1643
1457.41
-74.1372
1358.51
-62.6856
1278.53
-49.7775
1162.05
-44.0239
1030.65
-43.8254
868.322
-55.3379
769.853
-107.754
675.713
-269.558
714.484
-382.432
331.68
-445.745
82.9482
-447.155
-132.361
-394.51
-236.777
-612.654
144.957
1843.93
101.012
2022.31
120.122
1859.47
148.677
1691.88
191.411
1610.27
251.761
1471.7
331.637
1377.54
413.697
1276.45
484.336
1207.9
531.929
1114.47
546.754
1015.83
530.742
884.343
546.953
753.641
573.352
649.317
663.103
624.73
525.449
469.333
388.036
220.358
204.911
50.7594
64.7929
-96.6657
-547.861
166.979
1676.95
160.376
2028.91
188.092
1831.75
231.539
1648.43
289.965
1551.84
357.123
1404.55
434.358
1300.3
521.25
1189.56
609.623
1119.52
687.544
1036.55
749.225
954.15
782.06
851.508
795.602
740.098
847.494
597.424
930.46
541.764
900.31
499.481
755.609
365.057
563.646
242.72
400.288
66.688
-147.573
113.047
1563.91
130.437
2011.53
154.343
1807.85
185.701
1617.07
223.969
1513.58
259.513
1369.01
294.759
1265.06
338.444
1145.88
388.099
1069.87
439.156
985.493
487.873
905.433
531.901
807.483
575.68
696.319
626.426
546.679
675.996
492.193
697.184
478.293
650.61
411.631
547.151
346.178
336.107
277.731
188.534
42.3966
1521.51
61.0833
1992.84
75.5474
1793.38
85.3214
1607.3
95.5009
1503.4
95.0528
1369.46
89.2186
1270.89
92.3453
1142.75
104.594
1057.62
126.053
964.035
153.083
878.405
188.413
772.153
231.76
652.974
256.34
522.1
291.584
456.949
341.836
428.041
355.931
397.536
313.005
389.104
192.759
397.977
381.294
14.3752
1507.14
26.4593
1980.76
36.4895
1783.36
35.6627
1608.13
34.3722
1504.69
18.626
1385.21
-3.64174
1293.17
-25.396
1164.51
-32.471
1064.7
-26.36
957.928
-8.15486
860.203
17.0965
746.906
38.7147
631.358
36.9324
523.886
64.1136
429.77
113.461
378.696
144.098
366.9
134.045
399.158
79.9545
452.069
461.248
33.2468
1473.9
44.6344
1969.38
62.3512
1765.64
68.4124
1602.07
78.0069
1495.1
83.1388
1380.07
86.5111
1289.8
77.4195
1173.61
74.9575
1067.16
77.8308
955.057
88.0299
850.006
91.9645
742.973
82.0746
641.25
62.3004
543.661
62.8231
429.249
74.785
366.736
82.9927
358.693
68.6447
413.507
29.6723
491.043
490.92
45.3431
1428.56
56.7568
1957.97
84.7467
1737.66
99.4136
1587.41
119.522
1474.99
146.699
1352.9
182.071
1254.43
208.628
1147.05
227.641
1048.15
236.12
946.58
237.192
848.937
224.864
755.303
207.319
658.798
193.671
557.312
185.682
437.24
174.851
377.569
161.999
371.545
128.352
447.155
64.8291
554.568
555.749
26.7814
1401.78
36.268
1948.48
73.5615
1700.37
87.2471
1573.73
100.801
1461.44
118.051
1335.65
146.976
1225.5
180.062
1113.97
205.855
1022.36
216.761
935.676
216.905
848.795
212.293
759.917
214.444
656.649
220.671
551.087
222.952
434.96
216.047
384.476
207.747
379.846
177.023
477.881
106.585
625.008
662.334
-9.76928
1411.55
-9.2617
1947.98
28.2276
1662.88
33.0119
1568.94
34.6482
1459.81
32.3312
1337.97
35.572
1222.26
44.1938
1105.35
56.8507
1009.71
66.5074
926.022
77.3369
837.968
93.2129
744.044
115.08
634.783
133.898
532.271
146.225
422.635
157.084
373.619
172.022
364.908
164.954
484.95
112.819
677.144
775.154
-18.6951
1430.25
-16.2035
1945.49
24.9788
1621.7
31.5083
1562.41
31.8556
1459.46
24.9487
1344.88
17.2754
1229.94
6.47823
1116.15
3.87255
1012.31
7.99499
921.9
19.4752
826.489
33.1295
730.39
44.9103
623.004
49.3283
527.854
48.0039
423.961
54.7437
366.88
75.3849
344.268
95.1469
465.189
75.0823
697.21
850.236
-24.7014
1454.95
-17.7149
1938.5
41.4807
1562.5
62.3643
1541.53
77.8359
1443.99
88.8852
1333.83
97.3619
1221.46
97.1401
1116.37
96.9161
1012.54
96.0218
922.795
96.1313
826.38
93.0594
733.463
87.8345
628.23
75.542
540.147
61.5065
437.997
57.3009
371.086
68.9646
332.605
81.5034
452.651
57.7372
720.977
907.973
54.525
1400.43
36.1923
1956.84
37.6671
1561.03
69.9467
1509.25
87.8598
1426.07
90.503
1331.19
94.8566
1217.11
93.9508
1117.28
89.2628
1017.23
80.9459
931.113
67.046
840.281
48.8935
751.616
27.1686
649.955
4.56857
562.748
-19.7776
462.344
-34.3351
385.644
-24.3138
322.584
14.7341
413.603
14.3739
721.337
922.347
219.118
437.352
552.408
696.675
816.119
901.381
937.077
945.564
930.623
897.817
843.756
770.831
676.327
568.313
440.402
304.113
173.12
93.0576
43.0048
)
;

boundaryField
{
    outletWall
    {
        type            calculated;
        value           nonuniform List<scalar> 
60
(
5364.88
467.013
-2137.38
-2198.14
-417.877
2879.31
1887.16
-7923.94
-14943.8
-15431.4
-9908
2419.88
12275.2
13887.3
11286.5
7678.51
5241.09
7023.46
9276.72
3166.3
4219.4
4491.78
5177.14
6124.98
7019.59
7295.02
6786.03
5944.65
5185.31
5068.05
5681.41
6476.22
6943.13
6926.59
6544.75
5983.08
5299.79
4638.1
3790.59
3441.68
7403.32
2937.69
-753.449
-4869.32
-10968.9
-16975.9
-21608.3
-23219.1
-15504.6
2045.11
11604.3
10703.2
9347.59
8475.01
3104.08
-9959.96
-15179.2
-16433.9
-16233.3
-7844.38
)
;
    }
    fineWalls
    {
        type            calculated;
        value           uniform 0;
    }
    fineFrontAndBack
    {
        type            calculated;
        value           nonuniform List<scalar> 
960
(
-1.55878e-13
-7.44637e-13
-1.20951e-13
-9.35895e-14
2.8261e-13
1.99522e-13
2.68963e-13
-4.01217e-13
-1.26895e-11
-3.00577e-12
-2.8749e-12
5.06803e-12
2.44566e-12
1.84502e-12
8.68748e-12
1.52326e-12
1.1903e-12
5.35431e-12
7.25066e-13
2.7838e-13
1.34298e-13
-1.64699e-13
-2.67183e-13
-3.73478e-13
-4.36424e-13
-5.58088e-13
-7.2496e-12
-7.44914e-13
-8.10789e-13
-8.8851e-13
-9.64198e-13
-1.03213e-12
-1.10516e-12
-1.17808e-12
-1.26608e-12
-1.37926e-12
-1.53413e-12
-1.80734e-12
-1.77995e-12
-1.42021e-12
-3.21281e-11
-4.30569e-12
-4.09329e-12
-4.15923e-12
-7.24616e-12
4.13908e-13
3.3154e-12
2.31836e-11
5.0845e-10
2.36206e-11
8.13047e-12
3.04381e-11
7.1377e-12
8.05252e-12
4.3535e-12
1.49164e-11
2.35066e-12
2.19896e-12
2.17355e-12
1.45184e-11
6.45128e-13
8.56681e-13
1.1259e-12
9.39633e-13
7.50941e-13
6.39381e-13
5.58116e-13
4.94795e-13
4.28795e-13
3.73168e-13
3.23401e-13
2.78773e-13
2.37806e-13
-7.17153e-12
1.55556e-14
-1.51922e-13
-2.02301e-13
-3.16167e-13
-4.38284e-13
-7.49572e-13
-3.82803e-12
-3.97047e-12
-2.15641e-11
-3.29772e-12
-3.59067e-12
-1.97177e-11
-3.12731e-12
-3.40715e-12
-2.01494e-11
-3.27867e-12
-3.48591e-12
-1.72561e-11
-1.35645e-12
-1.53789e-12
-2.40567e-12
-2.42126e-11
-5.55617e-12
-5.37782e-12
-2.85054e-11
-6.35273e-12
-1.97038e-11
-5.04163e-11
-5.85915e-11
-3.89167e-11
-2.98946e-11
-2.48795e-11
-1.97102e-11
-1.49448e-11
-6.87135e-12
-2.93394e-12
-8.40464e-12
-1.14479e-11
-1.98371e-11
-2.53005e-11
-2.90751e-11
-3.15078e-11
-3.52728e-11
-3.8446e-11
-4.28328e-11
-2.30201e-11
-6.04732e-11
-5.64732e-11
-2.57183e-11
-1.5006e-11
-9.01558e-12
-6.12715e-12
-1.03834e-11
-1.15641e-11
1.0706e-12
-6.78222e-12
-1.10529e-11
-1.90243e-11
-2.20173e-11
-2.5333e-11
-2.91042e-11
-3.39499e-11
-3.838e-11
-4.16492e-11
-2.17073e-11
-5.98501e-11
-4.19655e-11
-1.16255e-11
-3.75137e-13
1.04716e-11
1.3896e-11
6.36696e-13
-1.77064e-11
-7.23679e-12
-2.159e-12
-9.77007e-12
-1.76131e-11
-1.80678e-11
-1.95611e-11
-2.35565e-11
-2.93042e-11
-3.42969e-11
-4.10235e-11
-2.07838e-11
-5.88609e-11
-3.02751e-11
-2.98929e-12
9.43015e-12
2.7421e-11
3.12372e-11
9.53882e-12
-2.38493e-11
-2.60922e-11
-2.82433e-12
-8.8072e-12
-1.54013e-11
-1.13078e-11
-1.20219e-11
-1.63634e-11
-2.40401e-11
-2.95731e-11
-3.44525e-11
-2.29294e-11
-5.72043e-11
-2.47974e-11
-1.94849e-12
1.48401e-11
3.92045e-11
3.80295e-11
7.77029e-12
-3.2118e-11
-3.92492e-11
-1.41044e-11
-8.16004e-12
-1.44457e-11
-4.01373e-12
-9.96995e-12
-1.41836e-11
-2.10191e-11
-2.65216e-11
-2.89072e-11
-3.14542e-11
-5.90088e-11
-2.6715e-11
-6.39463e-12
2.15055e-11
4.40766e-11
3.47024e-11
8.22332e-15
-4.09841e-11
-5.03892e-11
-2.65858e-11
-9.96969e-12
-1.04492e-11
5.01335e-13
-1.32069e-11
-3.0745e-11
-2.80034e-11
-2.83669e-11
-3.32513e-11
-4.66982e-11
-6.82212e-11
-3.65172e-11
-4.0548e-12
3.02658e-11
3.83414e-11
2.30526e-11
-6.4211e-12
-4.41857e-11
-5.09324e-11
-3.10376e-11
-1.45136e-11
-2.39622e-12
4.7412e-12
-7.84804e-12
-2.57772e-11
-3.66046e-11
-3.80193e-11
-4.82122e-11
-6.64914e-11
-8.06102e-11
-3.72034e-11
1.19134e-11
3.35675e-11
2.28767e-11
9.82288e-12
-8.36177e-12
-4.32207e-11
-4.9016e-11
-3.12316e-11
-1.22138e-11
6.26529e-12
8.55502e-12
4.97209e-12
-9.70516e-12
-3.05248e-11
-2.66616e-11
-7.05286e-12
-8.73703e-11
-8.21585e-11
-7.99569e-12
3.01157e-11
2.41974e-11
4.72424e-12
5.01184e-12
-5.01718e-12
-4.26532e-11
-4.86495e-11
-2.83164e-11
-7.52393e-12
-1.54252e-12
-4.65158e-12
6.62097e-12
1.50822e-11
4.56539e-12
4.41214e-12
1.60706e-11
-9.73172e-11
-4.05032e-11
3.1324e-11
2.7809e-11
5.74068e-12
-5.28281e-12
1.3889e-11
6.16658e-12
-3.38918e-11
-4.26521e-11
-2.44453e-11
-1.38493e-11
-2.23999e-11
-2.66026e-11
-1.4183e-11
1.28385e-11
2.57564e-11
2.34775e-11
2.79916e-11
-6.91352e-11
1.7887e-11
3.33981e-11
7.33222e-12
-1.25561e-11
-8.91729e-12
2.80003e-11
1.86307e-11
-1.90237e-11
-2.98767e-11
-1.83593e-11
-1.17025e-11
-1.59492e-11
-1.7891e-11
-2.84149e-11
-2.83164e-11
1.27715e-12
5.80899e-11
2.22803e-10
-2.50353e-11
2.78367e-11
9.97209e-12
-7.27424e-12
-2.55724e-11
-2.14239e-11
2.22767e-11
2.81569e-11
-7.37047e-12
-2.11983e-11
-1.38932e-11
-2.07655e-12
7.09415e-12
1.91473e-12
-1.28128e-11
-4.13634e-11
-5.71564e-11
-5.90599e-11
-4.94106e-11
2.82436e-13
2.21952e-11
7.89235e-12
-5.14421e-12
-3.18428e-11
-3.56076e-11
1.42886e-11
3.66007e-11
9.31251e-12
-1.05441e-11
-9.21632e-12
3.50606e-12
2.94923e-12
-2.44184e-12
1.06286e-12
4.89707e-12
-1.37551e-11
-2.57679e-11
-3.64884e-11
1.90282e-11
2.7689e-11
1.9267e-11
6.93212e-13
-3.07686e-11
-4.41971e-11
4.34062e-12
3.89512e-11
2.66745e-11
6.09762e-12
-3.34752e-12
-1.6371e-12
-1.11973e-11
-7.96877e-12
-4.35336e-12
4.15489e-13
2.6651e-12
-1.60354e-12
5.40793e-12
3.19681e-11
3.06886e-11
2.40291e-11
3.20453e-12
-2.56545e-11
-4.74951e-11
-1.19738e-11
2.46371e-11
3.02296e-11
1.77436e-11
1.00158e-12
-1.02218e-11
-1.56544e-11
-9.94495e-12
-5.79024e-12
-9.57231e-13
2.35251e-12
1.01394e-12
4.65056e-12
3.0967e-11
2.92346e-11
2.41073e-11
6.54373e-12
-1.81663e-11
-5.23334e-11
-3.74603e-11
-1.83038e-12
1.70587e-11
1.6052e-11
2.18483e-12
-1.29596e-11
-1.30766e-11
-1.06208e-11
-7.70668e-12
-3.51104e-12
-2.70291e-12
-1.38397e-12
-3.53114e-12
2.53327e-11
2.94605e-11
2.39221e-11
1.01732e-11
-1.14394e-11
-5.0893e-11
-5.91224e-11
-3.23271e-11
-5.62391e-12
6.36193e-12
1.94267e-12
-1.01696e-11
-1.19875e-11
-1.05955e-11
-7.51622e-12
-4.60084e-12
-2.54904e-12
-1.35778e-12
-3.43331e-12
2.2381e-11
2.96266e-11
2.48393e-11
1.34118e-11
-6.09151e-12
-4.249e-11
-6.55791e-11
-5.2428e-11
-2.52703e-11
-4.95119e-12
8.57017e-13
-7.60996e-12
-1.1592e-11
-1.06568e-11
-7.50995e-12
-4.14374e-12
-2.21252e-12
-1.64722e-12
1.27365e-12
2.42668e-11
3.09366e-11
2.64465e-11
1.62204e-11
-2.15078e-12
-3.3514e-11
-6.11898e-11
-6.10424e-11
-3.91522e-11
-1.6033e-11
-3.46203e-12
-8.54378e-12
-1.11542e-11
-1.04713e-11
-7.27668e-12
-3.87127e-12
-1.96431e-12
-1.21189e-12
1.1446e-14
2.68295e-11
3.18791e-11
2.79503e-11
1.80026e-11
2.99084e-13
-2.66918e-11
-4.79282e-11
-5.51847e-11
-4.53512e-11
-2.85995e-11
-1.3409e-11
-1.11791e-11
-1.09253e-11
-1.03351e-11
-7.05212e-12
-3.5764e-12
-1.7367e-12
-1.03468e-12
-8.04042e-13
1.55878e-13
7.44637e-13
1.20951e-13
9.35895e-14
-2.8261e-13
-1.99522e-13
-2.68963e-13
4.01217e-13
1.26895e-11
3.00577e-12
2.8749e-12
-5.06803e-12
-2.44566e-12
-1.84502e-12
-8.68748e-12
-1.52326e-12
-1.1903e-12
-5.35431e-12
-7.25066e-13
-2.7838e-13
-1.34298e-13
1.64699e-13
2.67183e-13
3.73478e-13
4.36424e-13
5.58088e-13
7.2496e-12
7.44914e-13
8.10789e-13
8.8851e-13
9.64198e-13
1.03213e-12
1.10516e-12
1.17808e-12
1.26608e-12
1.37926e-12
1.53413e-12
1.80734e-12
1.77995e-12
1.42021e-12
3.21281e-11
4.30569e-12
4.09329e-12
4.15923e-12
7.24616e-12
-4.13908e-13
-3.3154e-12
-2.31836e-11
-5.0845e-10
-2.36206e-11
-8.13047e-12
-3.04381e-11
-7.1377e-12
-8.05252e-12
-4.3535e-12
-1.49164e-11
-2.35066e-12
-2.19896e-12
-2.17355e-12
-1.45184e-11
-6.45128e-13
-8.56681e-13
-1.1259e-12
-9.39633e-13
-7.50941e-13
-6.39381e-13
-5.58116e-13
-4.94795e-13
-4.28795e-13
-3.73168e-13
-3.23401e-13
-2.78773e-13
-2.37806e-13
7.17153e-12
-1.55556e-14
1.51922e-13
2.02301e-13
3.16167e-13
4.38284e-13
7.49572e-13
3.82803e-12
3.97047e-12
2.15641e-11
3.29772e-12
3.59067e-12
1.97177e-11
3.12731e-12
3.40715e-12
2.01494e-11
3.27867e-12
3.48591e-12
1.72561e-11
1.35645e-12
1.53789e-12
2.40567e-12
2.42126e-11
5.55617e-12
5.37782e-12
2.85054e-11
6.35273e-12
1.97038e-11
5.04163e-11
5.85915e-11
3.89167e-11
2.98946e-11
2.48795e-11
1.97102e-11
1.49448e-11
6.87135e-12
2.93394e-12
8.40464e-12
1.14479e-11
1.98371e-11
2.53005e-11
2.90751e-11
3.15078e-11
3.52728e-11
3.8446e-11
4.28328e-11
2.30201e-11
6.04732e-11
5.64732e-11
2.57183e-11
1.5006e-11
9.01558e-12
6.12715e-12
1.03834e-11
1.15641e-11
-1.0706e-12
6.78222e-12
1.10529e-11
1.90243e-11
2.20173e-11
2.5333e-11
2.91042e-11
3.39499e-11
3.838e-11
4.16492e-11
2.17073e-11
5.98501e-11
4.19655e-11
1.16255e-11
3.75137e-13
-1.04716e-11
-1.3896e-11
-6.36696e-13
1.77064e-11
7.23679e-12
2.159e-12
9.77007e-12
1.76131e-11
1.80678e-11
1.95611e-11
2.35565e-11
2.93042e-11
3.42969e-11
4.10235e-11
2.07838e-11
5.88609e-11
3.02751e-11
2.98929e-12
-9.43015e-12
-2.7421e-11
-3.12372e-11
-9.53882e-12
2.38493e-11
2.60922e-11
2.82433e-12
8.8072e-12
1.54013e-11
1.13078e-11
1.20219e-11
1.63634e-11
2.40401e-11
2.95731e-11
3.44525e-11
2.29294e-11
5.72043e-11
2.47974e-11
1.94849e-12
-1.48401e-11
-3.92045e-11
-3.80295e-11
-7.77029e-12
3.2118e-11
3.92492e-11
1.41044e-11
8.16004e-12
1.44457e-11
4.01373e-12
9.96995e-12
1.41836e-11
2.10191e-11
2.65216e-11
2.89072e-11
3.14542e-11
5.90088e-11
2.6715e-11
6.39463e-12
-2.15055e-11
-4.40766e-11
-3.47024e-11
-8.22332e-15
4.09841e-11
5.03892e-11