/*--------------------------------*- C++ -*----------------------------------*\
| =========                 |                                                 |
| \\      /  F ield         | OpenFOAM: The Open Source CFD Toolbox           |
|  \\    /   O peration     | Version:  4.1                                   |
|   \\  /    A nd           | Web:      www.OpenFOAM.org                      |
|    \\/     M anipulation  |                                                 |
\*---------------------------------------------------------------------------*/
FoamFile
{
    version     2.0;
    format      ascii;
    class       volVectorField;
    location    "23";
    object      U;
}
// * * * * * * * * * * * * * * * * * * * * * * * * * * * * * * * * * * * * * //

dimensions      [0 1 -1 0 0 0 0];

internalField   nonuniform List<vector> 
1280
(
(-1.12649e-16 -2.41805 -1.7059)
(-1.26558e-16 -1.99708 -1.77823)
(-8.74081e-17 -1.8298 -1.2844)
(-6.76347e-17 -1.51403 -1.39041)
(4.80323e-17 -1.57114 -1.77361)
(1.4419e-16 -0.975879 -1.1815)
(1.94372e-16 -0.901389 -1.30671)
(-2.09277e-16 -0.605455 -1.39314)
(-2.08125e-15 -0.48824 -2.05684)
(-2.15768e-15 -0.0219525 -1.54738)
(-2.07761e-15 0.248464 -1.37976)
(1.42168e-15 0.496028 -2.50295)
(1.79475e-15 0.975316 -1.9214)
(1.36049e-15 1.28567 -1.66628)
(1.62351e-15 1.89862 -2.98424)
(1.10082e-15 2.05862 -2.33876)
(8.60196e-16 2.73541 -1.88702)
(9.10017e-16 2.27709 -4.18959)
(5.13153e-16 4.52722 -2.09382)
(2.01178e-16 2.468 -6.05865)
(5.50966e-16 4.28943 2.07848)
(-6.75687e-16 4.40925 7.21602)
(-1.09613e-15 4.31005 8.76925)
(-1.53222e-15 4.76887 9.35065)
(-1.79046e-15 4.74455 9.68856)
(-2.28959e-15 5.12926 10.8055)
(-1.52824e-15 3.8469 8.30247)
(-3.05606e-15 8.28835 13.7859)
(-3.32631e-15 8.42241 13.769)
(-3.64517e-15 8.3977 13.661)
(-3.95568e-15 8.41069 13.5722)
(-4.23436e-15 8.37622 13.5355)
(-4.53398e-15 8.37744 13.478)
(-4.83313e-15 8.28896 13.4143)
(-5.19417e-15 8.2956 13.2947)
(-5.65849e-15 8.13196 13.1856)
(-6.29388e-15 8.17143 12.9762)
(-7.41471e-15 7.88334 12.7556)
(-7.30238e-15 7.96423 13.0139)
(-5.82651e-15 7.74095 13.6513)
(-5.59236e-15 9.06133 14.2277)
(-3.45839e-15 5.47478 9.54224)
(-3.28779e-15 4.3165 9.36072)
(-3.32244e-15 3.33708 9.41713)
(-1.09226e-15 1.18171 8.49047)
(3.32456e-16 0.383671 2.43296)
(2.66298e-15 -0.247468 -0.595124)
(1.86214e-14 0.5172 -2.40582)
(8.90092e-14 0.639004 -5.10762)
(1.91257e-14 -0.621535 -3.10758)
(6.37702e-15 0.651993 -3.3487)
(5.29819e-15 -0.505316 -5.01864)
(5.73309e-15 -0.459779 -1.47741)
(6.46789e-15 0.205214 0.401168)
(3.49679e-15 -0.570514 3.50891)
(2.59641e-15 -1.35405 8.65358)
(1.90627e-15 -3.42319 9.32302)
(1.76623e-15 -4.41876 9.28229)
(1.74582e-15 -5.58662 9.44251)
(2.46739e-15 -8.88285 14.3679)
(2.64668e-15 -7.61346 14.2781)
(3.51459e-15 -7.87289 13.2583)
(4.61908e-15 -7.70471 12.3522)
(3.8549e-15 -8.08656 12.5111)
(3.08078e-15 -8.03015 12.8094)
(2.6231e-15 -8.25536 13.0751)
(2.28971e-15 -8.253 13.3855)
(2.02993e-15 -8.38814 13.6314)
(1.75916e-15 -8.39587 13.8704)
(1.53094e-15 -8.46072 14.0009)
(1.32677e-15 -8.43066 14.0821)
(1.14369e-15 -8.43409 14.0767)
(9.75612e-16 -8.31477 13.9686)
(-1.51179e-15 -4.20366 8.68642)
(6.38179e-17 -4.75076 11.173)
(-6.23268e-16 -4.47545 10.4119)
(-8.29954e-16 -4.43757 9.73069)
(-1.29709e-15 -3.98096 8.69963)
(-1.79809e-15 -4.19545 7.56526)
(-3.07517e-15 -3.98775 1.88443)
(-2.76642e-15 -2.47806 -5.37697)
(-2.86935e-15 -4.25303 -1.75798)
(-3.66503e-15 -2.46466 -3.65898)
(-2.38318e-15 -2.76491 -1.72598)
(-2.59489e-15 -2.17697 -2.10463)
(-3.35376e-15 -2.12066 -2.64362)
(-2.25983e-15 -1.48975 -1.47715)
(-2.45592e-15 -1.21861 -1.74685)
(-3.36741e-15 -0.892361 -2.25924)
(-2.36941e-15 -0.504201 -1.18916)
(-2.54296e-15 -0.299119 -1.50574)
(-2.79386e-15 0.070816 -2.01105)
(-9.57338e-16 0.313626 -1.16675)
(-1.11139e-15 0.531432 -0.857879)
(-1.73852e-15 0.572245 -0.656707)
(-4.11516e-15 0.924626 -1.29811)
(-4.0153e-15 1.02468 -1.19115)
(-3.88242e-15 1.28521 -1.10435)
(-4.85275e-15 1.33447 -1.47548)
(-4.59095e-15 1.75899 -1.28818)
(-2.18931e-15 1.03886 2.88948)
(-5.60181e-15 3.01908 4.5805)
(-6.51016e-15 2.25948 7.21895)
(-4.32407e-15 1.68504 8.81685)
(-3.32163e-15 2.52767 9.33248)
(-2.76439e-15 3.76872 9.13238)
(-2.19002e-15 4.6879 8.21367)
(-1.66053e-15 4.21605 6.43065)
(-7.63483e-16 0.919932 3.34173)
(-3.25993e-16 -3.17651 0.505221)
(-9.33848e-16 -5.10123 -0.0560357)
(-1.27198e-15 -4.97519 -0.479201)
(-2.20413e-15 -2.6401 -0.925931)
(-2.81116e-15 0.699434 -1.88464)
(-3.23057e-15 0.962718 -2.71217)
(-3.50087e-15 -0.189738 -2.76475)
(-3.9192e-15 -0.748364 -2.37651)
(-4.27178e-15 -0.708124 -1.96758)
(-4.7592e-15 0.177807 -1.90381)
(-2.55779e-15 0.391097 3.18574)
(-6.71924e-15 1.54394 5.43822)
(-6.2748e-15 0.833848 8.40778)
(-2.85759e-15 1.05053 9.74053)
(-1.66733e-15 2.51931 9.46191)
(-1.00173e-15 4.19864 8.52128)
(-6.80794e-16 5.55833 7.36981)
(-1.15371e-15 5.68786 6.16484)
(-1.2849e-15 2.91522 4.29863)
(1.18955e-16 -2.26303 0.923304)
(-7.5358e-16 -4.86919 0.0223247)
(-1.22811e-15 -4.67337 -0.122521)
(-2.11381e-15 -2.07476 -0.917394)
(-2.44637e-15 1.18751 -2.73252)
(-2.81478e-15 1.27992 -4.22592)
(-3.2338e-15 -0.262466 -4.31921)
(-3.77221e-15 -1.04844 -3.27237)
(-4.26445e-15 -0.924871 -2.26095)
(-4.62769e-15 -0.12179 -1.86786)
(-2.41192e-15 0.0436841 3.89848)
(-6.65001e-15 0.832068 6.26297)
(-4.66283e-15 0.376853 8.50531)
(-1.29172e-15 1.13662 8.83061)
(-4.16819e-17 2.9469 7.68225)
(1.16351e-15 4.62728 6.32796)
(1.544e-15 5.77717 5.24274)
(7.0744e-17 5.75446 4.57897)
(-1.96737e-15 3.35343 4.17638)
(-8.04087e-16 -1.35682 2.62731)
(-2.39889e-16 -4.57825 0.361325)
(-1.08556e-15 -4.55625 0.502398)
(-1.95701e-15 -1.428 -0.600668)
(-2.00753e-15 1.95225 -3.53154)
(-2.17346e-15 1.65518 -5.31578)
(-2.61739e-15 -0.545705 -5.65793)
(-3.25602e-15 -1.53708 -4.40041)
(-3.81076e-15 -1.23501 -2.94766)
(-4.55816e-15 -0.0946385 -2.29013)
(-2.30931e-15 -0.559564 4.45925)
(-6.5401e-15 -0.177862 6.89389)
(-3.3639e-15 -0.101367 8.2403)
(-3.32144e-16 1.4317 7.42533)
(1.04779e-15 3.53784 5.72484)
(3.04678e-15 5.14414 4.52724)
(3.4708e-15 6.16135 3.8483)
(1.05987e-15 6.00237 3.51626)
(-2.64993e-15 3.56945 3.62081)
(-2.89913e-15 -0.736291 3.66808)
(-3.13814e-16 -4.08992 1.82631)
(-9.78578e-16 -4.35305 1.29925)
(-1.71126e-15 -0.425954 0.111157)
(-1.25643e-15 3.03136 -3.54292)
(-1.33577e-15 2.21428 -4.69873)
(-1.81816e-15 -0.571258 -5.73109)
(-2.67112e-15 -2.09687 -5.0059)
(-3.2859e-15 -1.80392 -3.47565)
(-3.82806e-15 -0.648846 -2.77904)
(-2.54771e-15 -1.02925 5.03174)
(-6.35604e-15 -0.678142 7.10688)
(-2.75527e-15 0.081457 7.20123)
(-2.16499e-16 2.08184 5.44851)
(1.6489e-15 4.09687 3.79881)
(4.35606e-15 5.39863 3.15204)
(4.2255e-15 6.22391 3.06702)
(8.63366e-16 5.93906 3.24976)
(-3.56867e-15 3.36211 3.79095)
(-4.36102e-15 -0.661508 4.46443)
(-1.56715e-15 -3.66634 3.95295)
(-9.06671e-16 -3.91867 2.5848)
(-1.60508e-15 0.743578 0.949732)
(-4.4597e-16 3.85181 -0.76119)
(-1.10777e-15 2.52307 -0.930253)
(-1.57596e-15 -0.434609 -3.04735)
(-2.33546e-15 -2.30167 -4.14085)
(-2.94684e-15 -2.02604 -3.46589)
(-3.21191e-15 -0.431668 -3.07629)
(-3.49492e-15 -1.44771 5.49956)
(-6.55653e-15 -0.956996 6.91473)
(-2.96833e-15 0.573418 5.65463)
(-7.10515e-16 2.78934 3.36558)
(2.3895e-15 4.46086 2.19554)
(4.8974e-15 5.42987 2.12724)
(3.85582e-15 6.10184 2.59829)
(9.13702e-19 5.70794 3.40502)
(-4.55379e-15 3.03956 4.74282)
(-5.5988e-15 -0.812898 5.8597)
(-2.95397e-15 -3.40099 6.00124)
(-1.10774e-15 -3.23884 4.39451)
(-1.16103e-15 1.29139 2.75675)
(5.57039e-17 3.67679 4.18664)
(-1.46743e-15 2.94444 3.54814)
(-3.41611e-15 0.154155 0.961213)
(-3.11149e-15 -1.93471 -1.88549)
(-3.15188e-15 -2.37735 -2.15458)
(-3.69459e-15 -1.15045 -3.54841)
(-5.18869e-15 -1.67378 5.81327)
(-7.58014e-15 -0.719603 6.16354)
(-4.05747e-15 1.46323 3.61863)
(-4.50533e-16 3.4404 1.52193)
(3.36287e-15 4.59537 0.981812)
(4.26016e-15 5.24056 1.37939)
(2.5614e-15 5.72191 2.33983)
(-7.13455e-16 5.11229 3.76417)
(-4.90952e-15 2.336 6.00723)
(-5.65916e-15 -1.16685 7.70048)
(-3.44862e-15 -3.1871 7.84811)
(-1.61263e-15 -2.66005 6.61079)
(-2.66246e-16 1.03308 6.87413)
(5.268e-16 3.5215 8.4171)
(-8.72004e-16 3.7972 7.54768)
(-2.86413e-15 1.54935 4.95323)
(-4.06718e-15 -1.01025 0.778414)
(-4.22437e-15 -0.916924 -0.77526)
(-5.35692e-15 0.706307 -2.6085)
(-7.38793e-15 -1.64623 5.81539)
(-8.95669e-15 -0.0237042 4.72939)
(-4.13371e-15 2.42213 1.60778)
(1.32371e-15 3.83137 0.435205)
(3.72972e-15 4.53003 0.342093)
(2.54186e-15 4.88146 1.08751)
(1.09143e-15 5.14889 2.42388)
(-9.29086e-16 4.25948 4.31408)
(-4.8023e-15 1.41437 7.04659)
(-5.44623e-15 -1.51719 8.98066)
(-3.47017e-15 -3.0985 9.31396)
(-1.35709e-15 -2.68968 9.15973)
(6.96143e-16 0.648579 10.6011)
(9.50558e-16 3.44743 11.447)
(5.52454e-16 4.41547 11.3505)
(-1.07835e-15 3.02699 10.0215)
(-3.39165e-15 0.559196 6.55491)
(-2.9624e-15 -1.56714 5.31262)
(-7.83651e-16 -5.60632 9.35989)
(-9.70781e-15 -1.28798 5.39862)
(-9.12873e-15 1.00872 2.86643)
(-8.8841e-16 3.16369 0.567446)
(3.34618e-15 3.93356 0.262318)
(2.6886e-15 4.34488 0.381903)
(5.24915e-16 4.40329 1.34812)
(5.56871e-16 4.4452 2.90139)
(-5.57465e-16 3.28818 5.02299)
(-4.73925e-15 0.430316 7.66095)
(-5.4055e-15 -2.00393 9.56967)
(-3.14627e-15 -3.36886 10.5291)
(-8.35993e-16 -3.09041 11.3389)
(-1.71391e-16 0.197741 12.4079)
(-5.16842e-16 3.16146 12.5986)
(7.35663e-16 4.2239 13.3324)
(1.6758e-15 3.0407 14.0903)
(5.07266e-16 0.573708 13.7711)
(4.90238e-16 -1.67721 12.7608)
(1.78562e-15 -3.61168 12.3098)
(-1.0813e-14 -0.661497 4.68089)
(-4.50035e-15 1.90865 1.67519)
(3.48044e-15 3.47691 0.964003)
(3.08989e-15 3.89929 0.723703)
(6.37854e-16 4.10155 0.97774)
(-5.86978e-16 3.87012 2.02881)
(1.52541e-15 3.69989 3.67056)
(6.85176e-16 2.37429 5.82807)
(-3.76575e-15 -0.429873 7.92508)
(-4.73912e-15 -2.62156 9.61534)
(-2.71614e-15 -3.89924 11.2236)
(-1.56316e-15 -3.42646 12.3141)
(-2.48888e-15 0.143991 12.0904)
(-2.95584e-15 3.0872 11.348)
(-1.67186e-15 3.96099 12.4691)
(1.4265e-15 3.0617 13.6726)
(2.86182e-15 0.863695 12.8725)
(2.60861e-15 -1.40919 10.7012)
(3.11018e-15 -2.95699 6.66851)
(-7.68169e-15 -0.00929419 4.11488)
(1.98745e-15 2.43457 2.07762)
(3.7109e-15 3.57865 1.97293)
(8.14691e-16 3.90734 1.40641)
(-1.39512e-15 3.83033 1.76319)
(-9.9081e-16 3.32144 2.80811)
(3.14936e-15 2.9469 4.5179)
(2.07008e-15 1.57822 6.67721)
(-2.11374e-15 -1.0939 8.17678)
(-3.31963e-15 -3.28269 9.48163)
(-2.03992e-15 -4.4919 11.3909)
(-1.30028e-15 -3.39395 12.2072)
(-1.77213e-15 0.599821 10.0537)
(-1.98789e-15 2.97916 7.99038)
(-3.15721e-15 3.25377 9.5672)
(-3.14627e-15 2.90104 12.5849)
(1.41906e-16 1.97343 13.0245)
(6.45443e-15 1.67436 10.531)
(2.47559e-14 2.59286 6.26774)
(-2.7817e-15 0.345411 4.21615)
(3.09297e-15 2.70091 3.29143)
(1.10801e-15 3.78318 2.67364)
(-8.08249e-16 3.95793 2.02083)
(-2.84137e-15 3.55278 2.36916)
(-2.38043e-15 2.76242 3.44146)
(2.47519e-15 2.18501 5.30864)
(3.12855e-15 0.89024 7.49599)
(-8.18941e-16 -1.55266 8.65196)
(-2.35537e-15 -3.86914 9.461)
(-1.54369e-15 -5.00649 11.1692)
(-2.30727e-16 -2.92064 11.3132)
(7.88239e-16 1.73927 7.56513)
(2.12748e-16 3.31419 4.75213)
(-1.42364e-15 2.01538 4.32159)
(-4.59593e-15 1.51493 7.18908)
(-6.35071e-15 1.38114 11.1386)
(-6.56221e-15 1.61598 12.6793)
(-5.49006e-15 3.08935 12.3234)
(3.13818e-17 0.49847 4.88188)
(2.46613e-15 2.99177 4.00872)
(8.76927e-16 4.114 3.00404)
(-5.71579e-16 4.00086 2.42615)
(-3.53809e-15 3.27272 2.66133)
(-3.9564e-15 2.12955 3.88587)
(1.58762e-15 1.36081 6.01601)
(4.06675e-15 0.205543 8.20379)
(1.03472e-15 -1.88462 9.39063)
(-1.17156e-15 -4.24932 9.82348)
(-1.02404e-15 -5.28261 10.8255)
(3.89563e-16 -2.00088 10.2902)
(3.27692e-16 3.2054 6.55776)
(-2.71316e-16 4.33448 4.48216)
(1.18096e-16 2.59577 2.44213)
(5.44119e-16 0.616406 -0.424628)
(-1.52835e-15 -0.548163 0.97396)
(-2.8631e-15 1.09931 5.67653)
(-4.05427e-15 5.62574 10.105)
(2.11424e-15 0.758655 5.60184)
(3.07656e-15 3.39667 4.03737)
(2.14078e-15 4.43989 3.2004)
(7.70235e-17 4.06443 2.61684)
(-3.41873e-15 2.98511 2.72352)
(-4.91079e-15 1.38522 4.11743)
(4.82291e-16 0.482488 6.46662)
(4.32791e-15 -0.500018 8.41687)
(2.96383e-15 -2.22061 9.72673)
(6.77513e-16 -4.38741 10.2465)
(-3.71946e-16 -5.21727 10.4759)
(-1.819e-16 -1.12929 8.83384)
(-1.24414e-15 4.11335 5.00676)
(-8.85418e-16 4.98576 3.6477)
(-4.83706e-16 3.61333 1.97472)
(4.61654e-17 1.86092 0.138785)
(2.96122e-16 -0.420358 -2.12843)
(-1.78171e-16 -1.85777 -3.49747)
(6.00882e-16 -1.24396 -1.47187)
(3.55202e-15 1.19647 6.0388)
(3.40985e-15 3.91112 3.79103)
(2.6699e-15 4.70448 3.29621)
(3.56059e-16 4.16026 2.70119)
(-2.8505e-15 2.70758 2.67115)
(-5.27723e-15 0.596063 4.03369)
(-1.33042e-15 -0.321846 6.32694)
(2.73746e-15 -1.13107 7.84845)
(3.35885e-15 -2.63198 9.1365)
(1.97151e-15 -4.48841 9.89184)
(1.11287e-16 -4.77626 9.77705)
(-1.13575e-15 0.130192 6.96369)
(-1.73938e-15 5.19163 3.26795)
(-1.10499e-15 5.62307 2.28023)
(-6.4336e-16 4.10227 0.53908)
(-1.06359e-16 2.3468 -0.588923)
(2.6139e-16 0.492505 -2.00997)
(1.1266e-16 0.0852931 -3.19583)
(5.16729e-16 -0.07669 -4.89578)
(3.44078e-15 1.72078 5.82137)
(3.24829e-15 4.45376 3.55455)
(2.67859e-15 4.90035 3.30242)
(7.27081e-16 4.2774 2.75271)
(-2.01848e-15 2.50921 2.5418)
(-5.81482e-15 -0.118144 3.54922)
(-4.16226e-15 -0.980322 5.56954)
(-2.03376e-16 -1.65516 6.79757)
(1.89541e-15 -3.0492 7.88279)
(1.78355e-15 -4.58348 8.6207)
(2.42759e-16 -4.06996 8.39182)
(-1.43995e-15 1.47827 4.96786)
(-1.45296e-15 6.01729 1.76771)
(-1.18009e-15 6.14947 1.13786)
(-8.56298e-16 4.67714 -0.39085)
(-3.90115e-16 2.86486 -1.28913)
(-3.00324e-16 0.858562 -2.40962)
(-1.53774e-16 -0.128234 -3.18886)
(-3.92348e-16 -0.449848 -3.68162)
(2.81475e-15 2.14573 5.08628)
(3.27339e-15 4.88613 3.39869)
(2.65801e-15 5.05195 3.27562)
(1.13035e-15 4.4276 2.77105)
(-1.27105e-15 2.47041 2.37431)
(-5.65478e-15 -0.68723 2.77665)
(-6.56916e-15 -1.55637 4.49246)
(-3.5919e-15 -2.07125 5.58573)
(-6.24878e-16 -3.37767 6.38934)
(7.06881e-16 -4.64793 6.84849)
(2.15853e-16 -3.35021 6.47058)
(-1.12995e-15 2.65968 3.05731)
(-1.33195e-15 6.73385 0.484244)
(-1.17728e-15 6.5388 0.0536479)
(-8.35136e-16 5.07243 -1.08511)
(-5.11204e-16 3.18273 -1.73435)
(-2.83227e-16 1.21706 -2.47758)
(-1.50864e-16 0.315854 -3.02288)
(-3.81479e-16 -0.282465 -3.0368)
(2.48678e-15 2.41925 4.30406)
(3.29185e-15 5.15095 3.32244)
(2.75992e-15 5.17019 3.23234)
(1.4902e-15 4.59452 2.76012)
(-6.76834e-16 2.59652 2.22524)
(-4.72111e-15 -0.98339 1.99093)
(-7.28657e-15 -2.06369 3.36679)
(-5.82533e-15 -2.43055 4.41258)
(-2.80781e-15 -3.55705 4.9088)
(-5.50132e-16 -4.54671 4.94437)
(9.52241e-17 -2.50413 4.33603)
(-8.45551e-16 3.72767 1.1533)
(-1.288e-15 7.25447 -0.433093)
(-1.18409e-15 6.81479 -0.819543)
(-8.34438e-16 5.35297 -1.55774)
(-4.60415e-16 3.42168 -1.9947)
(-2.45836e-16 1.42417 -2.48463)
(-1.83024e-16 0.212234 -2.85798)
(1.41516e-16 -0.66828 -2.58727)
(2.69631e-15 2.55918 3.73975)
(3.43739e-15 5.29742 3.3233)
(2.9385e-15 5.28011 3.17192)
(1.80227e-15 4.76638 2.73987)
(-2.38975e-16 2.81041 2.15493)
(-3.72378e-15 -1.22611 1.39027)
(-6.79887e-15 -2.48334 2.26157)
(-6.78249e-15 -2.683 3.414)
(-4.35024e-15 -3.59524 3.80003)
(-1.78145e-15 -4.42383 3.46787)
(-3.8467e-16 -1.95453 2.39129)
(-9.49309e-16 4.53716 -0.520469)
(-1.23935e-15 7.57603 -1.05533)
(-1.16348e-15 7.02715 -1.39533)
(-8.0852e-16 5.51302 -1.84436)
(-4.30141e-16 3.54177 -2.10016)
(-2.18256e-16 1.54222 -2.36987)
(-1.34655e-16 0.251423 -2.55576)
(1.27178e-18 -0.73165 -2.31443)
(2.98105e-15 2.60269 3.5156)
(3.54212e-15 5.39323 3.32594)
(3.10559e-15 5.45954 3.11899)
(2.00029e-15 5.04084 2.71089)
(3.32316e-17 3.31543 2.1954)
(-2.96576e-15 -1.0924 1.3218)
(-5.32535e-15 -2.82511 1.33652)
(-6.13164e-15 -3.09794 2.18041)
(-5.03903e-15 -3.57094 2.51611)
(-3.17772e-15 -3.91142 2.10026)
(-1.48988e-15 -0.688538 0.830026)
(-1.24212e-15 5.03927 -1.07124)
(-1.21392e-15 7.68502 -1.42389)
(-1.14834e-15 7.17831 -1.69037)
(-7.83569e-16 5.65067 -1.98189)
(-3.97378e-16 3.65976 -2.12989)
(-1.92967e-16 1.6266 -2.27155)
(-1.14964e-16 0.241204 -2.31451)
(-8.9338e-17 -0.980431 -2.38729)
(9.72629e-17 13.9639 23.5071)
(-3.56429e-15 18.6744 31.2665)
(-3.47966e-15 16.5064 26.3874)
(-3.98873e-15 14.0755 22.2249)
(-4.24413e-15 13.365 20.521)
(-4.85081e-15 13.8778 20.9561)
(-4.73167e-15 13.6313 20.0642)
(-4.69623e-15 12.5256 18.2011)
(-5.10401e-15 11.2823 16.0806)
(-5.63669e-15 10.243 14.4498)
(-6.13546e-15 9.55078 13.2868)
(-6.60249e-15 8.90726 12.4125)
(-7.23593e-15 8.33423 11.4953)
(-7.99663e-15 7.51165 10.5674)
(-9.18971e-15 6.84406 9.48699)
(-1.09115e-14 5.74965 8.46158)
(-1.37331e-14 5.06905 7.10016)
(-1.68054e-14 3.86868 6.49611)
(-1.27525e-14 5.61149 8.42146)
(-6.02149e-15 5.82125 11.0633)
(6.58787e-17 14.3908 24.4629)
(-3.20381e-15 16.7422 28.7568)
(-2.45481e-15 14.1716 24.1729)
(-3.33204e-15 12.1409 20.6937)
(-3.45576e-15 11.9431 20.3264)
(-4.12265e-15 12.837 21.5668)
(-3.46238e-15 11.6955 19.5125)
(-3.76608e-15 9.87652 16.5191)
(-4.32015e-15 8.7177 14.5733)
(-4.80539e-15 8.10194 13.5694)
(-5.28011e-15 7.68319 12.6582)
(-5.66951e-15 7.02549 11.6798)
(-6.35191e-15 6.42143 10.396)
(-7.2318e-15 5.45408 9.17265)
(-8.82566e-15 4.88663 7.82274)
(-1.02926e-14 3.80947 6.80786)
(-1.30699e-14 3.54807 5.56835)
(-1.43732e-14 2.90494 5.74756)
(-8.74236e-15 5.18732 8.11644)
(-4.70578e-15 5.50101 10.518)
(2.89707e-17 14.6717 25.7251)
(-1.11744e-15 17.2413 29.5917)
(-9.60116e-16 15.2866 26.2837)
(-1.18951e-15 13.0755 22.1135)
(-1.23113e-15 12.5721 21.3536)
(-2.25654e-15 13.4035 22.4832)
(-1.61528e-15 11.657 19.5365)
(-1.87628e-15 10.0027 16.8543)
(-2.01214e-15 9.27049 15.4305)
(-2.04076e-15 8.72337 14.5175)
(-2.20382e-15 8.20582 13.3629)
(-2.3905e-15 7.38036 12.1444)
(-2.8847e-15 6.68996 10.6747)
(-3.42961e-15 5.65764 9.309)
(-4.06372e-15 5.03456 7.83206)
(-4.74518e-15 4.01528 6.84559)
(-5.92361e-15 3.84098 5.8271)
(-6.71257e-15 3.19125 5.8812)
(-4.22468e-15 5.06317 7.80048)
(-2.08155e-15 5.68983 10.7079)
(8.24566e-18 14.3212 25.3949)
(3.29606e-16 17.432 29.7333)
(2.33233e-16 15.395 26.6951)
(2.72282e-16 12.9117 21.9283)
(3.31556e-16 12.466 21.4091)
(-1.45261e-15 13.3681 22.6938)
(-1.54787e-15 10.9962 18.6283)
(-1.84544e-15 9.60089 16.4524)
(-2.05642e-15 9.20556 15.4568)
(-2.10267e-15 8.58717 14.5914)
(-2.15679e-15 8.03692 13.2604)
(-2.35245e-15 7.07545 11.9187)
(-2.74138e-15 6.38192 10.2898)
(-3.299e-15 5.25115 8.78889)
(-4.20396e-15 4.54758 7.01621)
(-4.84581e-15 3.4138 5.83996)
(-5.64214e-15 3.29441 4.88189)
(-5.82972e-15 2.77996 5.1762)
(-4.06955e-15 4.71609 7.26318)
(-2.65627e-15 5.44046 10.1208)
(-2.60641e-18 14.0683 25.3042)
(-8.3482e-17 17.863 30.2416)
(-5.59799e-17 15.5965 27.4181)
(-6.6882e-17 13.0294 22.1252)
(-8.52393e-17 12.6168 21.834)
(3.43298e-16 13.4432 23.0802)
(3.73129e-16 10.8382 18.4464)
(4.36017e-16 9.7576 16.8877)
(4.69296e-16 9.50813 15.9638)
(4.83953e-16 8.73758 15.0382)
(5.15677e-16 8.22272 13.6343)
(5.59191e-16 7.20649 12.3188)
(6.7027e-16 6.58897 10.705)
(7.85453e-16 5.4579 9.23334)
(9.54185e-16 4.7115 7.26873)
(1.13788e-15 3.45878 5.81836)
(1.45157e-15 3.31257 4.77281)
(1.73184e-15 2.76916 4.97957)
(1.01744e-15 4.50422 6.79128)
(4.91486e-16 5.11781 9.51958)
(6.70018e-19 13.7801 24.9803)
(2.00661e-17 18.1135 30.3588)
(1.31483e-17 15.6029 27.7821)
(1.60558e-17 13.1362 22.0862)
(2.0771e-17 12.677 21.9625)
(-7.94046e-17 13.4122 23.1668)
(-9.08353e-17 10.8736 18.3705)
(-1.01225e-16 9.80898 17.0549)
(-1.09234e-16 9.60009 16.0241)
(-1.15051e-16 8.7062 15.082)
(-1.24911e-16 8.244 13.6638)
(-1.34687e-16 7.18885 12.3797)
(-1.60345e-16 6.59777 10.7789)
(-1.83392e-16 5.48236 9.39793)
(-2.20687e-16 4.69137 7.34507)
(-2.826e-16 3.27733 5.58966)
(-3.76558e-16 2.99109 4.24914)
(-4.5363e-16 2.37649 4.31536)
(-2.98905e-16 4.09606 6.08816)
(-1.881e-16 4.53928 8.51275)
(-1.47096e-19 13.6887 24.9388)
(-4.81591e-18 18.3172 30.4101)
(-3.05447e-18 15.5781 28.1424)
(-3.80432e-18 13.402 22.2427)
(-4.94058e-18 12.764 22.1827)
(1.84089e-17 13.391 23.3053)
(2.18287e-17 11.0668 18.556)
(2.37456e-17 9.88113 17.3208)
(2.59379e-17 9.71757 16.1637)
(2.77958e-17 8.74584 15.2089)
(3.01171e-17 8.30095 13.7925)
(3.25048e-17 7.24932 12.497)
(3.80763e-17 6.60496 10.8773)
(4.34791e-17 5.54297 9.54269)
(5.26486e-17 4.77136 7.63376)
(6.9006e-17 3.37807 5.84695)
(8.82343e-17 2.99852 4.32568)
(1.06827e-16 2.26828 4.11565)
(8.58692e-17 3.86783 5.64112)
(5.23436e-17 4.03344 7.66104)
(2.96026e-20 13.7946 25.0853)
(1.15913e-18 18.4332 30.3156)
(7.16067e-19 15.5219 28.3672)
(8.85455e-19 13.7669 22.4647)
(1.18279e-18 12.8571 22.3064)
(-4.21174e-18 13.3445 23.3207)
(-5.29735e-18 11.3233 18.7266)
(-5.72011e-18 9.98502 17.5158)
(-6.2567e-18 9.84033 16.2549)
(-6.74246e-18 8.84876 15.2371)
(-7.24986e-18 8.34624 13.844)
(-7.84987e-18 7.37604 12.4989)
(-9.06477e-18 6.61242 10.8774)
(-1.04745e-17 5.61022 9.4197)
(-1.2684e-17 4.79786 7.67259)
(-1.61268e-17 3.55617 5.95903)
(-1.90033e-17 3.02369 4.36828)
(-2.29302e-17 2.23036 3.84884)
(-2.29179e-17 3.57988 5.09251)
(-1.5411e-17 3.43801 6.51059)
(-5.23994e-21 14.2392 25.7623)
(-2.7686e-19 18.4689 30.1034)
(-1.70909e-19 15.4319 28.5283)
(-2.02667e-19 14.2473 22.8878)
(-2.89947e-19 13.0118 22.5033)
(9.5039e-19 13.2822 23.3037)
(1.27103e-18 11.5994 18.946)
(1.38331e-18 10.2192 17.7935)
(1.50836e-18 10.0114 16.485)
(1.63107e-18 9.0975 15.3448)
(1.73973e-18 8.47997 14.0053)
(1.87894e-18 7.64392 12.6023)
(2.12958e-18 6.7949 11.0531)
(2.47589e-18 5.86937 9.47147)
(2.95589e-18 4.99001 7.80202)
(3.5193e-18 3.91045 6.11757)
(3.78032e-18 3.20452 4.52509)
(4.53649e-18 2.4021 3.69108)
(5.69339e-18 3.1957 4.37426)
(4.59492e-18 2.67555 4.89105)
(7.92797e-22 14.9 26.8127)
(6.52961e-20 18.4054 29.8456)
(4.12654e-20 15.3104 28.6024)
(4.59585e-20 14.8139 23.5885)
(6.85703e-20 13.221 22.7754)
(-2.13475e-19 13.2394 23.1728)
(-3.11482e-19 11.8634 19.4211)
(-3.38505e-19 10.6442 18.1617)
(-3.59561e-19 10.2108 16.8813)
(-3.88422e-19 9.48478 15.5701)
(-4.14111e-19 8.70609 14.2772)
(-4.50288e-19 7.98813 12.7837)
(-5.09921e-19 7.07625 11.2755)
(-5.94276e-19 6.21125 9.63254)
(-6.80273e-19 5.27627 7.96389)
(-7.55199e-19 4.24066 6.15378)
(-7.91028e-19 3.28909 4.36191)
(-8.36651e-19 2.38391 3.05125)
(-1.2067e-18 2.38879 2.91029)
(-2.32547e-18 1.44337 2.06689)
(-9.586e-23 15.4858 27.8162)
(-1.51577e-20 18.2772 29.7539)
(-1.01117e-20 15.3026 28.4827)
(-1.01131e-20 15.3745 24.6991)
(-1.93493e-20 13.4529 23.3162)
(4.91933e-20 13.2932 22.7752)
(7.2709e-20 12.0948 20.3394)
(8.23623e-20 11.3456 18.7591)
(8.73121e-20 10.4483 17.5901)
(9.41503e-20 10.017 16.0939)
(9.87951e-20 9.06949 14.8542)
(1.03083e-19 8.46798 13.2858)
(1.08827e-19 7.51512 11.7856)
(1.16773e-19 6.71474 10.1397)
(1.2635e-19 5.79712 8.50706)
(1.33013e-19 4.76681 6.6388)
(1.0112e-19 3.60643 4.54117)
(9.65341e-20 2.38901 2.73666)
(1.9863e-19 1.37203 1.22098)
(-2.30533e-20 -0.515385 -1.22444)
(1.07856e-23 15.7028 28.3675)
(3.51788e-21 18.0669 29.8461)
(2.44916e-21 15.4372 27.7437)
(2.42514e-21 15.3441 25.5556)
(2.93961e-21 13.495 24.0763)
(-1.07163e-20 13.3951 22.0236)
(-1.92678e-20 11.8459 21.2166)
(-2.01233e-20 11.7343 19.2971)
(-2.01179e-20 10.362 18.1907)
(-2.19429e-20 10.0888 16.629)
(-2.47561e-20 8.96684 15.406)
(-2.9175e-20 8.37932 13.785)
(-3.54327e-20 7.29138 12.2428)
(-4.21139e-20 6.44749 10.5409)
(-4.335e-20 5.39266 8.82376)
(-4.46502e-20 4.0885 6.68096)
(-1.5396e-19 2.32222 3.58825)
(-2.06233e-19 0.0688533 0.499559)
(5.3291e-19 -2.20443 -3.72539)
(6.65632e-19 -2.106 -2.73439)
(-1.19279e-25 15.6616 28.618)
(-8.19926e-22 18.3442 29.8723)
(-5.9014e-22 15.2913 27.9545)
(-5.7836e-22 15.5079 25.3397)
(-6.24735e-22 13.5064 24.1872)
(2.58242e-21 13.4436 22.2299)
(5.01558e-21 11.8569 20.9709)
(5.26768e-21 11.5811 19.2956)
(5.45416e-21 10.3038 18.0662)
(5.69063e-21 9.86054 16.5931)
(5.29677e-21 8.77155 15.2684)
(3.90643e-21 8.02913 13.6405)
(1.99226e-21 6.88982 11.9638)
(4.84315e-22 5.89522 10.099)
(3.36514e-21 4.61504 8.07952)
(-2.01e-20 3.03463 5.44992)
(-3.03841e-19 0.825884 1.64159)
(-7.91927e-19 -0.75759 -0.730698)
(-1.03369e-18 -0.399837 -0.477781)
(-1.51552e-18 1.36097 2.39031)
(-1.12518e-24 15.9447 29.4358)
(1.86594e-22 18.7353 30.0299)
(1.37313e-22 15.3638 28.2684)
(1.35358e-22 15.8932 25.6115)
(1.86241e-22 13.7888 24.4883)
(-4.21519e-22 13.6063 22.2631)
(-6.83514e-22 12.1537 20.9737)
(-5.01416e-22 11.8056 19.2865)
(-4.22517e-22 10.7153 17.9743)
(-4.36622e-22 10.1331 16.4806)
(-7.39794e-22 9.26147 15.091)
(-1.4534e-21 8.50804 13.5619)
(-2.46552e-21 7.58156 11.9388)
(-4.03277e-21 6.56073 10.0634)
(-5.75925e-21 5.23034 7.84688)
(-1.74323e-21 3.8886 5.52981)
(6.35244e-21 2.33151 2.88224)
(-3.54223e-20 0.98254 0.265649)
(-3.25079e-19 0.0356833 -1.26527)
(-6.59907e-19 -0.342246 -1.86197)
(7.53538e-25 16.3351 30.8625)
(-4.40855e-23 18.9125 29.8468)
(-3.88643e-23 15.3252 28.7278)
(-3.19878e-23 16.2504 26.0631)
(-5.28441e-24 13.946 25.1586)
(2.13823e-22 14.0552 23.1306)
(4.24744e-22 12.6783 21.9016)
(5.74428e-22 12.234 20.3245)
(7.34557e-22 11.3782 19.0079)
(8.39436e-22 10.7602 17.6372)
(7.2252e-22 10.0547 16.2835)
(-1.99568e-22 9.27997 14.744)
(-3.91501e-21 8.22163 12.8021)
(-1.26152e-20 6.78534 10.3419)
(-1.77212e-20 5.22407 7.85072)
(-1.46039e-20 3.61817 5.35147)
(-8.9339e-21 1.99436 2.91003)
(-4.11373e-21 0.46431 0.421232)
(-9.36033e-20 -1.73212 -2.68878)
(-3.97581e-19 -1.93538 -4.87713)
(-1.05592e-25 16.2263 31.4659)
(8.99019e-24 18.5165 29.0202)
(3.86683e-24 14.8891 28.5541)
(7.00399e-24 15.9024 25.9115)
(3.60308e-23 13.499 25.0441)
(7.14974e-23 13.5106 23.0623)
(1.64206e-22 12.0743 21.9178)
(3.17018e-22 11.5674 20.3891)
(4.56845e-22 10.6035 19.1778)
(4.6165e-22 9.93041 17.8577)
(-1.98767e-24 9.05783 16.506)
(-2.46457e-21 8.01355 14.705)
(-1.21375e-20 6.43677 12.0973)
(-3.55789e-20 4.36106 8.61778)
(-5.89863e-20 2.30813 5.1845)
(-4.48463e-20 0.788827 2.60044)
(-1.75359e-21 -0.299857 0.557492)
(2.25921e-21 -1.14909 -1.21943)
(-9.41449e-20 -2.79199 -3.66872)
(-2.65025e-19 -2.36145 -4.75956)
(1.4227e-25 15.4407 30.8244)
(-3.26249e-24 18.1614 28.1285)
(-5.90583e-24 14.2171 27.7747)
(-5.78502e-24 15.2221 25.1577)
(1.02782e-23 12.9652 24.2313)
(6.46083e-23 12.7419 22.3801)
(1.59389e-22 11.4856 21.1398)
(2.95157e-22 10.8167 19.6912)
(4.42523e-22 9.92803 18.4271)
(5.38223e-22 9.17111 17.1303)
(3.50863e-22 8.3125 15.7612)
(-1.53348e-21 7.29378 14.0459)
(-9.23849e-21 5.99451 11.7873)
(-2.63566e-20 4.62012 9.20781)
(-4.73651e-20 3.59222 7.00586)
(-6.177e-20 2.92951 5.34852)
(-6.55532e-20 2.21546 3.56754)
(-4.66376e-20 1.93277 2.48483)
(-8.94225e-20 -1.442 -1.92108)
(-1.69787e-19 -1.2005 -1.81183)
(1.14454e-25 14.1967 30.4175)
(2.36037e-25 17.9585 27.3582)
(-2.44921e-24 13.3031 27.2853)
(-5.9475e-24 14.2751 24.8612)
(-3.75105e-24 12.1612 23.9082)
(1.70449e-23 11.722 22.2663)
(7.70643e-23 10.5963 21.0263)
(1.86258e-22 9.8658 19.6714)
(3.33132e-22 9.04501 18.4282)
(5.13289e-22 8.32791 17.1839)
(7.23688e-22 7.6055 15.9363)
(6.87594e-22 6.88158 14.59)
(-8.60073e-22 6.13486 13.0846)
(-6.85283e-21 5.39245 11.395)
(-2.10674e-20 4.61577 9.47784)
(-4.51854e-20 3.58398 7.1269)
(-7.59452e-20 1.84445 3.73112)
(-1.02463e-19 -1.23295 -2.45928)
(-9.44295e-20 -1.84137 -3.55501)
(-1.59605e-19 -1.28888 -2.27919)
(6.84734e-26 11.2568 28.5094)
(-1.03406e-25 16.9979 24.9215)
(-1.63494e-24 11.9909 25.3382)
(-6.27811e-24 12.6776 23.5923)
(-1.19971e-23 10.9313 22.8354)
(-9.56061e-24 10.2817 21.7235)
(1.95215e-23 9.29174 20.7894)
(9.60181e-23 8.52582 19.8179)
(2.32436e-22 7.76283 18.8872)
(4.54034e-22 7.08815 17.9722)
(8.57635e-22 6.47302 17.0916)
(1.59378e-21 5.92372 16.2259)
(2.5493e-21 5.40417 15.3107)
(2.65884e-21 4.86195 14.228)
(-7.43482e-22 4.23052 12.8312)
(-1.15029e-20 3.399 10.9417)
(-3.18946e-20 2.2616 8.30152)
(-5.77524e-20 0.923165 4.63634)
(-7.52945e-20 -0.468924 0.443301)
(-6.48215e-20 -1.13427 -2.20959)
(4.0942e-26 2.65699 17.0575)
(9.26398e-26 8.0711 13.6865)
(-3.25374e-25 5.18248 14.5554)
(-2.12619e-24 5.00714 14.1545)
(-5.66351e-24 4.08364 14.1156)
(-8.03645e-24 3.52539 13.9403)
(-1.94185e-25 2.95689 13.7834)
(3.08118e-23 2.49629 13.5951)
(8.98435e-23 2.09901 13.3885)
(1.59628e-22 1.77477 13.1551)
(2.11375e-22 1.51602 12.8928)
(2.61339e-22 1.32354 12.6022)
(4.43257e-22 1.19986 12.292)
(1.00394e-21 1.16091 11.9672)
(2.13744e-21 1.23023 11.6207)
(3.69282e-21 1.37725 11.2576)
(4.9645e-21 1.62288 10.8143)
(4.91815e-21 2.26553 9.94213)
(3.13536e-21 2.505 8.55781)
(7.44878e-22 -0.218415 6.47275)
(-7.76458e-27 -2.68757 17.1117)
(-1.97767e-26 -8.07238 13.7569)
(6.2473e-27 -5.17669 14.6351)
(4.54303e-26 -4.98021 14.2484)
(5.75865e-26 -4.03932 14.2248)
(-4.02921e-26 -3.4592 14.0649)
(-3.92982e-25 -2.8657 13.9222)
(-1.36482e-24 -2.37516 13.7444)
(-4.03874e-24 -1.94416 13.5462)
(-1.0485e-23 -1.58568 13.3232)
(-2.1363e-23 -1.29674 13.0778)
(-2.61163e-23 -1.0812 12.8121)
(1.34987e-23 -0.942845 12.5369)
(1.63617e-22 -0.902424 12.2713)
(4.57307e-22 -0.993333 12.0298)
(7.77825e-22 -1.19299 11.8058)
(8.54664e-22 -1.53476 11.4439)
(5.61354e-22 -2.30735 10.501)
(1.85559e-22 -2.63534 8.95848)
(3.34045e-23 0.108045 6.74426)
(-1.85053e-27 -11.3999 28.7614)
(9.9612e-26 -17.1087 25.2154)
(1.60183e-25 -12.1257 25.6246)
(3.50298e-25 -12.7865 23.913)
(7.65084e-25 -11.057 23.1722)
(1.1221e-24 -10.4071 22.0888)
(-5.66319e-25 -9.43268 21.1788)
(-9.45353e-24 -8.67918 20.234)
(-3.01796e-23 -7.93059 19.3226)
(-5.77543e-23 -7.25862 18.4057)
(-6.50714e-23 -6.62686 17.4845)
(-1.25549e-23 -6.0424 16.5502)
(5.60153e-23 -5.48739 15.5827)
(-1.97144e-22 -4.89791 14.4597)
(-1.47282e-21 -4.09393 12.8432)
(-4.16521e-21 -2.79673 10.1957)
(-7.10117e-21 -0.882816 6.13839)
(-8.02487e-21 1.36674 1.17203)
(-7.02531e-21 3.10226 -3.05155)
(-6.05802e-21 2.47104 -4.45232)
(-1.41233e-26 -14.2993 30.7504)
(-3.78746e-25 -18.2726 27.5414)
(-3.5372e-25 -13.5008 27.5338)
(2.89016e-26 -14.6573 25.0187)
(1.95809e-24 -12.5301 24.0646)
(6.25291e-24 -12.2076 22.3709)
(6.35959e-24 -11.1487 21.1103)
(-4.01052e-24 -10.5298 19.725)
(-3.12564e-23 -9.81907 18.4609)
(-7.33366e-23 -9.23155 17.1962)
(-1.00844e-22 -8.65317 15.9612)
(-6.36401e-23 -8.11031 14.719)
(4.97401e-25 -7.56461 13.4482)
(-2.29863e-22 -6.97008 12.0308)
(-1.28762e-21 -6.16084 10.2419)
(-3.40221e-21 -4.94011 7.71128)
(-5.88712e-21 -2.98404 4.26577)
(-6.86745e-21 -0.868594 0.168396)
(6.65911e-22 1.91471 -3.01969)
(-1.15953e-20 2.30327 -6.4581)
(-2.33702e-26 -15.0056 30.252)