/*--------------------------------*- C++ -*----------------------------------*\
| =========                 |                                                 |
| \\      /  F ield         | OpenFOAM: The Open Source CFD Toolbox           |
|  \\    /   O peration     | Version:  4.1                                   |
|   \\  /    A nd           | Web:      www.OpenFOAM.org                      |
|    \\/     M anipulation  |                                                 |
\*---------------------------------------------------------------------------*/
FoamFile
{
    version     2.0;
    format      ascii;
    class       volScalarField;
    location    "26";
    object      p;
}
// * * * * * * * * * * * * * * * * * * * * * * * * * * * * * * * * * * * * * //

dimensions      [0 2 -2 0 0 0 0];

internalField   nonuniform List<scalar> 
1280
(
0.313717
0.682065
1.25206
1.32558
1.91973
2.13355
2.07804
2.056
2.06907
2.33363
2.0469
1.84189
1.79444
0.846153
0.817029
-0.312192
-2.05623
-4.06043
-4.00587
-16.7803
-3.99136
17.0527
36.3224
41.0106
42.4908
48.3612
30.6141
35.6602
35.0508
34.0289
32.5579
30.8046
29.0409
27.9474
28.2747
29.925
34.0467
37.5927
43.2008
39.5658
-24.9039
17.1024
26.1219
28.281
44.6461
43.6933
44.1322
45.1646
46.9524
46.7506
46.7096
46.7929
42.7436
40.4176
40.034
41.756
18.8181
15.6838
4.37758
-41.8643
30.3971
34.1368
27.9135
24.039
19.5953
18.0443
18.141
19.9081
22.0649
24.1712
25.967
27.3255
29.3711
21.3156
51.4845
46.6264
46.044
41.5632
22.5296
2.30997
-9.03347
4.37229
-0.639362
1.49503
4.74344
4.37492
5.19167
6.83014
5.35605
5.41982
5.5311
5.56057
3.878
3.49976
3.93863
3.26966
0.91578
0.657917
-0.969098
1.08695
-0.12469
-0.1928
-0.442063
-0.695454
-1.12673
-1.2124
-1.54535
0.0543977
0.384381
0.330562
0.673307
2.52928
5.13543
5.688
3.0106
-0.0309461
-0.75558
-1.03609
-0.275769
-0.280639
-0.274357
-0.357947
-0.335937
-0.235664
0.176138
0.522604
1.46491
1.02561
0.925732
1.42094
4.85564
11.1189
13.5919
7.7717
1.09333
-3.72137
-3.94543
0.424669
-0.211354
-0.0787877
-0.110461
0.0554775
0.295617
0.889771
1.33829
2.44392
1.72409
1.55009
2.20913
6.33833
14.6781
19.8509
11.3598
0.820151
-10.249
-10.3395
-0.630137
-0.179923
0.0353607
0.0234889
0.267096
0.552342
1.27801
1.74599
3.24609
2.37601
2.26863
3.13523
8.18097
19.0923
28.6644
17.1894
-0.532746
-20.9496
-20.3634
-3.06228
-0.175356
0.107663
0.143696
0.48226
0.871905
1.76953
2.32437
4.13419
3.03271
3.05367
4.09664
10.0248
23.4276
36.7954
23.0966
-2.18723
-31.5151
-33.7783
-8.09059
-0.159511
0.18546
0.272319
0.69311
1.17366
2.21837
2.84758
5.06531
3.66851
3.86853
5.02751
11.52
26.1404
39.6078
26.9831
-1.32047
-36.0354
-37.4572
-9.11318
-0.1413
0.25103
0.385787
0.867532
1.41312
2.574
3.25026
5.8943
4.21363
4.65974
5.86404
12.6659
28.0395
37.3638
28.0321
1.49503
-37.7331
-38.0327
-11.9078
-0.123203
0.300603
0.484396
1.01119
1.60728
2.86057
3.56008
6.6118
4.632
5.41263
6.52994
13.2014
27.9642
31.7082
26.6611
4.80749
-30.6739
-32.0756
1.09669
-0.102137
0.337554
0.571293
1.1258
1.75531
3.06774
3.7665
7.17108
4.92005
6.08625
6.95734
12.9173
24.9667
24.5976
22.4463
8.65031
-12.6076
-10.1465
46.0079
-0.0777066
0.36021
0.644342
1.20723
1.85103
3.17872
3.85971
7.48242
5.10884
6.48684
7.09462
11.9165
20.5864
17.3983
18.3272
10.9291
-1.95418
4.25741
51.6193
-0.0491817
0.368746
0.70377
1.25484
1.89473
3.18372
3.84983
7.51075
5.2111
6.61327
6.96406
10.5427
16.5168
8.33055
10.375
10.9117
2.53613
7.75036
52.0359
-0.0176472
0.359779
0.745835
1.26605
1.88721
3.07729
3.757
7.16745
5.25432
6.54978
6.6035
8.66739
10.6543
-6.09972
1.13337
14.0484
12.083
15.5812
54.2586
0.0227437
0.341716
0.776643
1.24549
1.83118
2.86382
3.56502
6.4426
5.22393
6.40569
6.10224
6.70052
6.12705
-12.8539
-3.5338
13.6954
16.365
9.46295
8.11497
0.058768
0.297645
0.778506
1.18423
1.72678
2.57779
3.26763
5.48101
5.08178
6.2697
5.57363
4.94847
3.24108
-13.9494
-7.32597
11.989
12.2938
6.74106
1.23185
0.124812
0.274304
0.785768
1.10979
1.58775
2.23565
2.83123
4.35441
4.74676
6.10035
4.98477
3.41157
0.906835
-14.4734
-10.7574
9.56764
11.299
7.24967
4.24723
0.144678
0.180216
0.722261
0.969648
1.39345
1.88154
2.38436
3.31571
4.37002
5.94718
4.40027
2.17874
-0.839886
-12.4242
-11.2667
7.52129
8.90673
5.86202
4.61575
0.297633
0.240701
0.735624
0.895604
1.22638
1.53439
1.8246
2.24187
3.43117
5.27741
3.4855
1.20296
-1.3908
-8.57146
-11.0819
5.77325
7.01974
4.99883
3.89891
0.186311
-0.00375855
0.517618
0.593051
0.86871
1.1353
1.43894
1.99753
3.13031
4.68309
2.94254
0.722782
-2.15713
-4.33841
-9.46423
4.76137
5.24016
3.92714
3.15642
0.56854
0.432492
0.630852
0.706816
0.875088
0.96354
0.862585
0.60834
0.677315
1.63274
1.08834
-0.176751
-0.489587
1.06762
-9.44421
3.42872
3.61332
2.78157
2.15524
-0.265847
-0.50376
-0.0719045
-0.199243
-0.184969
-0.102675
0.209709
1.50702
2.44114
2.6399
1.73862
0.472689
-3.16883
-0.589136
-9.77976
0.272955
0.559188
0.221989
0.4745
129.15
128.149
125.543
123.398
120.422
117.364
114.24
111.134
107.958
105.105
102.545
100.258
98.304
96.6486
95.2657
94.1368
93.4647
92.764
92.7464
91.5734
87.7533
89.371
88.8752
89.5419
89.9468
90.5043
91.0539
91.607
92.2432
92.9054
93.5879
94.1859
94.5607
94.5886
94.348
93.9642
93.9188
94.045
94.6183
94.6666
81.9601
83.7803
84.5587
85.6055
86.391
86.9968
87.6622
88.1542
88.6472
89.1016
89.6048
90.2233
91.0219
91.9955
93.1343
94.363
95.6184
96.8674
97.7821
98.7847
54.149
56.6737
58.4362
60.08
61.7477
63.0562
64.5436
65.8228
67.1225
68.3475
69.5333
70.6901
71.832
72.9991
74.2008
75.5146
76.83
78.3417
79.4631
81.0103
39.4578
41.7655
43.7027
45.1436
46.989
48.3098
49.9821
51.4249
52.9524
54.427
55.8799
57.3075
58.6903
60.048
61.3428
62.6454
63.8383
65.1708
66.1244
67.5151
13.376
15.2282
16.9141
17.6922
19.5518
20.5759
22.2908
23.7003
25.3802
27.0857
28.9261
30.8932
32.9809
35.2081
37.4994
39.8975
42.2114
44.6069
46.471
49.3706
-10.1724
-11.7212
-11.2491
-12.7353
-12.549
-13.8335
-14.1629
-15.2556
-15.9745
-16.8382
-17.3972
-17.6716
-17.4879
-16.7149
-15.2421
-12.9561
-10.171
-6.86041
-4.53407
-0.679834
2.03943
-3.26904
-4.08203
-7.56341
-9.29503
-12.5498
-14.9134
-18.1051
-20.8485
-23.7813
-26.3809
-28.8921
-31.1937
-33.2684
-34.9075
-36.3207
-37.5007
-37.5282
-37.1197
-34.2736
53.0776
47.535
45.9584
41.6321
39.0887
34.973
31.759
27.7092
24.1691
20.4961
17.4269
14.7359
12.7168
11.3264
10.6948
10.5059
10.148
9.56164
7.98097
5.52672
101.938
100.723
100.952
99.7415
100.314
99.3716
99.6389
98.895
98.5507
97.5255
96.231
94.2069
91.459
87.8296
83.595
79.2533
75.7031
74.1885
73.6358
69.6794
86.5075
87.8515
89.0857
89.1305
90.882
91.0258
92.4736
93.0358
94.0535
94.6789
95.3085
95.7833
96.1933
96.4664
96.5086
96.1348
95.379
94.2648
94.0219
93.4521
70.8778
72.7198
75.0316
75.1612
77.9275
78.4281
80.5194
81.5981
83.0778
84.2307
85.2594
86.0618
86.6773
87.2145
87.8914
88.9063
90.3102
91.9462
93.2038
94.3769
41.1554
42.6637
45.7928
45.5853
49.0371
49.4531
52.0213
53.3766
55.3535
57.1265
58.9706
60.8279
62.6812
64.5543
66.4279
68.3829
70.3345
72.5103
74.2966
76.5909
11.2104
10.9492
14.1271
12.7935
16.0517
15.428
17.6819
18.1847
19.7208
20.8602
22.2343
23.6387
25.1541
26.8468
28.7146
30.8737
33.1277
35.8707
38.1799
41.7318
-3.35288
-6.33165
-4.28592
-7.42876
-5.72986
-8.194
-7.64602
-9.11012
-9.39912
-10.2849
-10.8175
-11.3305
-11.5261
-11.2995
-10.6349
-9.57653
-8.4062
-6.67678
-5.39782
-2.22329
18.2185
13.1926
14.2493
9.14159
9.56309
5.74263
4.77233
2.08933
0.361189
-1.87632
-3.85884
-5.91534
-7.77063
-9.38791
-10.6718
-11.801
-12.7495
-13.3387
-14.4484
-13.2347
65.7686
60.388
62.3234
55.1527
55.0849
50.1478
47.9703
44.4626
41.734
38.8482
36.2569
33.8321
31.7008
29.8647
28.2651
26.7748
25.3038
23.6629
21.0981
19.0182
67.4163
60.6909
69.2646
62.599
65.1311
62.185
61.4683
59.4269
57.7362
55.7575
53.8385
51.9445
50.224
48.7569
47.5722
46.6749
46.2677
46.0997
45.6899
44.8148
73.8686
51.7581
60.0683
49.3086
46.8519
40.5252
35.9041
30.9696
26.7396
22.9928
19.9725
17.7476
16.4429
16.1687
17.0838
19.1177
22.1104
26.4464
30.8718
32.6078
760.125
677.488
628.487
572.398
523.56
476.474
432.734
391.459
352.648
316.007
281.353
248.476
217.161
187.329
159.011
131.431
104.715
82.8125
58.1198
22.3192
777.644
695.007
646.006
589.917
541.078
493.993
450.253
408.978
370.167
333.527
298.874
265.997
234.683
204.852
176.535
148.956
122.24
100.337
75.6424
39.8511
91.3769
69.266
77.5758
66.8158
64.3585
58.0313
53.4096
48.4745
44.2438
40.4963
37.4753
35.2495
33.9439
33.6686
34.5827
36.6153
39.6065
43.9439
48.3735
50.1078
84.9255
78.2015
86.7764
80.1121
82.6455
79.7008
78.9855
76.9457
75.2566
73.2795
71.3622
69.47
67.7513
66.2857
65.1021
64.2058
63.7997
63.6327
63.2248
62.3522
83.3218
77.9422
79.879
72.7094
72.6434
67.7076
65.5317
62.0254
59.2982
56.4136
53.8234
51.3996
49.2692
47.4337
45.8342
44.3436
42.8722
41.2311
38.6646
36.5765
35.7508
30.7216
31.7772
26.6671
27.0866
23.2643
22.2918
19.6069
17.8768
15.6375
13.6534
11.5957
9.73994
8.12234
6.83775
5.70703
4.75674
4.1651
3.05194
4.26301
14.1207
11.1379
13.1817
10.0372
11.733
9.26725
9.81238
8.34602
8.05444
7.16592
6.63076
6.11509
5.91722
6.14144
6.80278
7.85729
9.02388
10.7502
12.0275
15.2003
28.6468
28.3799
31.5562
30.2201
33.4758
32.8493
35.1008
35.6005
37.1341
38.2705
39.6419
41.0436
42.5567
44.2478
46.1148
48.274
50.5285
53.2724
55.5821
59.1341
58.5491
60.0563
63.1869
62.9801
66.433
66.8496
69.4189
70.7748
72.7527
74.5263
76.3711
78.2289
80.0829
81.9571
83.8323
85.7897
87.7439
89.9214
91.7087
94.0053
88.3022
90.1425
92.4547
92.5822
95.3461
95.844
97.931
99.0062
100.481
101.631
102.658
103.463
104.087
104.64
105.341
106.378
107.793
109.432
110.69
111.869
103.898
105.257
106.501
106.559
108.322
108.482
109.945
110.528
111.568
112.22
112.878
113.382
113.816
114.107
114.156
113.764
112.977
111.848
111.61
111.055
119.652
118.466
118.71
117.52
118.109
117.182
117.462
116.726
116.383
115.354
114.048
112.005
109.231
105.573
101.31
96.944
93.3784
91.8518
91.3035
87.3623
71.0823
65.5512
63.9775
59.6607
57.1236
53.0172
49.8114
45.7727
42.2441
38.5839
35.5251
32.8412
30.8221
29.4196
28.7592
28.5251
28.1271
27.5631
25.986
23.4848
19.8895
14.5637
13.7323
10.2338
8.48347
5.20984
2.81923
-0.401279
-3.1796
-6.15128
-8.79603
-11.3544
-13.7019
-15.8145
-17.4901
-18.9271
-20.0465
-20.0382
-19.6558
-16.8136
7.36999
5.78534
6.23723
4.72713
4.88998
3.58202
3.22864
2.11243
1.37348
0.494508
-0.0717052
-0.342401
-0.143118
0.654767
2.15533
4.46052
7.25483
10.5523
12.8778
16.7416
30.7382
32.5834
34.2643
35.0386
36.8964
37.9193
39.6348
41.0462
42.73
44.4413
46.2893
48.2658
50.3636
52.6005
54.8996
57.3027
59.6143
62.0086
63.8769
66.7796
57.1188
59.4143
61.3439
62.7794
64.6228
65.9431
67.6157
69.0591
70.5874
72.0624
73.5151
74.9412
76.3211
77.6741
78.9627
80.2574
81.4405
82.7613
83.7059
85.081
71.4256
73.9564
75.7084
77.339
78.9984
80.296
81.7725
83.042
84.3332
85.5518
86.7335
87.89
89.0327
90.1989
91.3946
92.6946
93.9873
95.4721
96.5665
98.0939
100.15
101.875
102.555
103.55
104.288
104.859
105.5
105.982
106.476
106.939
107.449
108.054
108.801
109.704
110.746
111.868
113.015
114.179
115.019
115.973
103.689
105.386
104.823
105.439
105.822
106.39
106.957
107.525
108.169
108.821
109.483
110.05
110.431
110.507
110.316
109.987
109.963
110.107
110.638
110.698
150.211
149.327
146.734
144.668
141.758
138.741
135.662
132.52
129.093
125.957
123.095
120.459
118.119
116.079
114.294
112.719
111.611
110.442
109.979
108.253
)
;

boundaryField
{
    outletWall
    {
        type            fixedValue;
        value           uniform 0;
    }
    fineWalls
    {
        type            zeroGradient;
    }
    fineFrontAndBack
    {
        type            zeroGradient;
    }
    fineplugLeft
    {
        type            cyclicAMI;
        value           nonuniform List<scalar> 
20
(
81.1718
82.8373
81.7297
81.5811
81.2944
81.8675
82.9083
84.4514
86.3672
88.5474
90.8898
93.3765
96.0393
104.731
103.563
104.836
106.921
107.699
105.93
102.522
)
;
    }
    fineplugRight
    {
        type            cyclicAMI;
        value           nonuniform List<scalar> 
20
(
92.682
94.8108
93.9364
94.0964
94.0939
95.0438
96.4911
98.4769
100.78
103.31
105.959
108.739
111.89
122.66
121.29
122.731
124.943
125.7
123.967
120.63
)
;
    }
    inletOutletLeft
    {
        type            cyclicAMI;
        value           nonuniform List<scalar> 
20
(
81.1718
82.8373
81.7297
81.5811
81.2944
81.8675
82.9083
84.4514
86.3672
88.5474
90.8898
93.3765
96.0393
104.731
103.563
104.836
106.921
107.699
105.93
102.522
)
;
    }
    inletLeft
    {
        type            zeroGradient;
    }
    inletWallsLeft
    {
        type            zeroGradient;
    }
    inletFacesLeft
    {
        type            zeroGradient;
    }
    inletOutletRight
    {
        type            cyclicAMI;
        value           nonuniform List<scalar> 
20
(
92.682
94.8108
93.9364
94.0964
94.0939
95.0438
96.4911
98.4769
100.78
103.31
105.959
108.739
111.89
122.66
121.29
122.731
124.943
125.7
123.967
120.63
)
;
    }
    inletRight
    {
        type            zeroGradient;
    }
    inletWallsRight
    {
        type            zeroGradient;
    }
    inletFacesRight
    {
        type            zeroGradient;
    }
}


// ************************************************************************* //
