/*--------------------------------*- C++ -*----------------------------------*\
| =========                 |                                                 |
| \\      /  F ield         | OpenFOAM: The Open Source CFD Toolbox           |
|  \\    /   O peration     | Version:  4.1                                   |
|   \\  /    A nd           | Web:      www.OpenFOAM.org                      |
|    \\/     M anipulation  |                                                 |
\*---------------------------------------------------------------------------*/
FoamFile
{
    version     2.0;
    format      ascii;
    class       surfaceScalarField;
    location    "26";
    object      phi;
}
// * * * * * * * * * * * * * * * * * * * * * * * * * * * * * * * * * * * * * //

dimensions      [0 3 -1 0 0 0 0];

internalField   nonuniform List<scalar> 
2360
(
-2777.02
-1231.63
-1545.4
-1231.63
-1231.63
410.935
-1642.56
410.932
410.933
410.93
2353.48
-1942.55
2353.48
2353.49
4792.58
-2439.09
4792.58
4792.57
8069.59
-3277.01
8069.59
8069.59
12874.7
-4805.11
12874.7
12874.7
13835.3
15533.3
17192.6
18663.4
19977.7
21189.5
17503.1
4830.13
18560.2
19521.9
20378.6
21124.3
21755.4
22288.5
22777.2
23296.4
23930.8
24732
25697.8
26720.9
27544.7
15463.6
12081.1
15463.6
15463.6
15463.6
4535.85
10927.7
4535.84
4535.84
4535.84
-598.606
5134.45
-598.611
-598.614
-7809.32
7210.71
-7809.32
-7809.32
-7809.32
-19209.6
11400.3
-19209.6
-19209.6
-19209.6
-30080.9
10871.3
-29234.7
-28202.6
-27236.4
-26442
-25816.3
-25301.5
-24808
-24256.3
-23603.4
-22843.7
-21979.5
-21016.9
-19964.9
-21423.6
2599.77
-20216.3
-18903.8
-17431.1
-15773.1
-14099.2
-13180.7
-13180.7
-13180.7
-8592.38
-4588.3
-8592.38
-8592.38
-4366.52
-4225.86
-4366.52
-4366.52
-588.552
-3777.97
-588.554
-588.554
2750.57
-3339.13
2750.57
2750.57
2750.57
6338.57
-3588
6338.57
6338.57
9806.17
-3467.6
-1896.83
10366.9
-1932.78
13216.7
-1877.3
15366.5
-1743.65
17411.6
-1465.04
19682.8
-1111.11
20929.6
-578.821
21233.4
-232.766
15052.5
-483.971
-4271.78
-773.629
610.338
-892.241
9298.68
-989.78
14444.2
-769.907
16661.5
-10.0971
12405.5
1845.82
-959.736
3606.67
-5158.72
3696.03
-2308.34
3272.64
1870.23
4214.5
-1891.29
10448.7
-1933.75
13259.2
-1880.18
15312.9
-1748.81
17280.2
-1475.76
19409.8
-1121.99
20575.9
-578.348
20689.7
-96.804
14571
-430.374
-3938.21
-921.507
1101.47
-1136.37
9513.53
-1282.27
14590.1
-914.199
16293.4
712.576
10778.7
3379.82
-3626.98
5808.08
-7586.98
6039.97
-2540.22
4424.82
3485.38
5051.32
-1893.14
10537.4
-1941.91
13307.9
-1891.72
15262.7
-1762.7
17151.2
-1495.79
19142.9
-1135.54
20215.6
-575.959
20130.1
-106.507
14101.5
-522.876
-3521.84
-1118.66
1697.26
-1472.28
9867.16
-1711.94
14829.8
-1264.89
15846.4
1260.37
8253.45
4561.82
-6928.43
7161.75
-10186.9
7617.3
-2995.77
5526.52
5576.16
7238.71
-1903.72
10630.5
-1954.97
13359.2
-1907.16
15214.9
-1780.58
17024.6
-1520.12
18882.4
-1151.8
19847.3
-583.404
19561.7
-122.586
13640.7
-659.097
-2985.33
-1377.71
2415.87
-1886.19
10375.6
-2283.03
15226.6
-1834.38
15397.7
1515.49
4903.58
4803.57
-10216.5
6847.33
-12230.7
7687.42
-3835.87
6197.73
7065.85
9658.48
-1920.18
10727.6
-1973.36
13412.4
-1927.79
15169.3
-1805.03
16901.8
-1550.39
18627.8
-1172.99
19469.9
-593.978
18982.7
-141.948
13188.7
-828.353
-2298.92
-1681.67
3269.18
-2374.94
11068.9
-2991.56
15843.3
-2575.96
14982.1
719.112
1608.51
2263.78
-11761.2
2914.81
-12881.7
4717.54
-5638.6
5371.64
6411.75
10804.3
-1941.49
10827.7
-1996.26
13467.1
-1953.1
15126.1
-1834.93
16783.7
-1585.47
18378.3
-1198.26
19082.7
-608.95
18393.4
-168.964
12748.7
-1033.42
-1434.47
-2009.05
4244.82
-2911.51
11971.4
-3724.62
16656.4
-3277.68
14535.2
-1831.46
162.293
-2972.61
-10620
-2828.14
-13026.2
-46.1851
-8420.55
2646.56
3719
8862.52
-1966.23
10929.3
-2021.85
13522.8
-1980.74
15085
-1867.27
16670.2
-1622.3
18133.3
-1227.18
18687.5
-630.505
17796.7
-165.416
12283.6
-1279.39
-320.49
-2342.04
5307.46
-3446.57
13075.9
-4438.49
17648.3
-4611.5
14708.2
-5702.71
1253.51
-7676.48
-8646.26
-7558.38
-13144.3
-4693.9
-11285
-1141.61
166.714
10320.7
-1992.71
11031.4
-2048.22
13578.3
-2008.19
15045
-1898.84
16560.9
-1657.65
17892.1
-1260.22
18290.1
-662.692
17199.2
-163.648
11784.5
-1453.16
969.019
-2653.99
6508.29
-3923.01
14344.9
-5117.64
18842.9
-6240.17
15830.7
-8698.19
3711.53
-10825.2
-6519.24
-11926
-12043.5
-11513.8
-11697.2
-9751.01
-1596.12
11441
-2019.61
11132.2
-2073.29
13631.9
-2032.38
15004.1
-1925.5
16454
-1687.36
17654
-1296.16
17898.9
-707.02
16610.1
-204.717
11282.2
-1496.88
2261.18
-2930.65
7942.06
-4310.18
15724.5
-5702.12
20234.9
-7427.21
17555.8
-10060.6
6344.94
-11901.5
-4678.37
-13819.2
-10125.8
-15940.4
-9575.97
-15553.7
-1982.82
7287.55
-2046.1
11229.3
-2094.71
13680.6
-2049.1
14958.5
-1941.43
16346.3
-1705.52
17418.1
-1329.88
17523.3
-757.839
16038
-294.421
10818.8
-1626.8
3593.56
-3183.08
9498.34
-4595.42
17136.8
-6095.72
21735.2
-8066.64
19526.7
-10828.6
9106.88
-12247.3
-3259.62
-12757
-9616.13
-13308
-9024.94
-12673.6
-2617.24
1824.69
-2072.38
11318.6
-2109.71
13717.9
-2052.29
14901.1
-1938.07
16232.1
-1703.22
17183.2
-1351.8
17171.9
-820.116
15506.3
-532.734
10531.4
-1913.52
4974.34
-3413.15
10998
-4776.83
18500.5
-6337.44
23295.8
-8713.28
21902.6
-12055.8
12449.4
-13210.5
-2104.95
-13461.7
-9364.91
-13697.9
-8788.73
-11297.2
-5018
-4338.06
-2099.15
11394
-2114.84
13733.6
-2034.53
14820.8
-1904.53
16102.1
-1668.23
16946.9
-1350.06
16853.7
-923.36
15079.6
-954.144
10562.2
-2324.53
6344.73
-3593.59
12267
-4842.73
19749.6
-6354.41
24807.4
-8533.75
24081.9
-10325.7
14241.4
-9349.17
-3081.47
-10344.6
-8369.44
-14484.6
-4648.8
-15215.3
-4287.26
-8625.62
-2128.51
11446.1
-2107.94
13713
-1990.1
14702.9
-1830.55
15942.5
-1586.49
16702.9
-1310.62
16577.8
-1074.14
14843.2
-1467.15
10955.2
-2725.75
7603.33
-3690.12
13231.4
-4809.06
20868.6
-6215.95
26214.3
-7998.74
25864.7
-8298.1
14540.8
-5236.77
-6142.8
-3366.81
-10239.4
-5946.44
-2069.17
-9655.87
-577.826
-6200.42
-2164.28
11465.4
-2091.83
13640.6
-1920.12
14531.2
-1712.84
15735.2
-1448.8
16438.8
-1214.45
16343.5
-1196.48
14825.2
-1882.18
11640.9
-2976.43
8697.58
-3686.59
13941.6
-4710.4
21892.4
-5986.8
27490.7
-7391.31
27269.2
-7262.66
14412.1
-4589.17
-8816.3
-2012.56
-12816
1684.92
-5766.65
2371.47
-1264.37
1001.17
-2221.77
11435.1
-2073.43
13492.2
-1827.4
14285.2
-1551.77
15459.6
-1251.36
16138.4
-1035.81
16127.9
-1168.31
14957.7
-2016.12
12488.7
-2972.74
9654.2
-3577.48
14546.3
-4592.02
22906.9
-5724.98
28623.7
-6697.89
28242.1
-6017.1
13731.3
-3475.56
-11357.8
-1710.34
-14581.2
-18.1989
-7458.79
2683
-3965.57
-1120.94
-2323.67
11334.7
-2068.63
13237.2
-1729.07
13945.6
-1370.13
15100.7
-1020.96
15789.3
-783.393
15890.4
-926.279
15100.6
-1763.24
13325.7
-2633.79
10524.8
-3364.58
15277.1
-4506.84
24049.2
-5502.17
29619
-6076.49
28816.4
-4913.27
12568.1
-2722.85
-13548.3
-1319.01
-15985.1
-7.8932
-8769.91
1735.44
-5708.9
-2662.51
-2473.03
11107
-2050.17
12814.3
-1606.5
13501.9
-1155.23
14649.4
-739.121
15373.2
-416.365
15567.6
-403.839
15088
-993.163
13915
-1852.24
11383.8
-3066.06
16490.9
-4527.41
25510.5
-5421.32
30512.9
-5613.32
29008.4
-3849.61
10804.4
-2123.33
-15274.5
-1149.23
-16959.2
156.582
-10075.7
1387.5
-6939.81
-3714.11
-2670.69
10742.2
-2085.67
12229.3
-1561.78
12978.1
-1022.53
14110.2
-525.19
14875.8
-66.0206
15108.4
237.916
14784.1
201.423
13951.5
-781.376
12366.6
-2899.75
18609.3
-4729.52
27340.3
-5531.6
31315
-5404.64
28881.5
-3060.61
8460.38
-1525.11
-16810
-897.328
-17587
209.084
-11182.1
1135.57
-7866.3
-4521.09
-2410.63
10187.4
-1726.83
11545.5
-1280.35
12531.6
-676.56
13506.4
4.37776
14194.9
804.826
14308
1700.42
13888.5
2330.68
13321.3
556.254
14141.1
-2949.82
22115.4
-5050.44
29440.9
-5884.4
32149
-5388.74
28385.8
-2614.05
5685.69
-1179.46
-18244.6
-632.745
-18133.7
215.817
-12030.7
1028.27
-8678.75
-5135.38
-2245.72
-1291.48
-824.156
-119.37
686.269
1534.84
2214.11
1744.47
-1192.62
-4465.72
-6065.39
-6706.63
-5432.74
-2426.37
-1019.74
-487.457
187.388
977.755
128.257
-1088.82
386.897
-1956.66
560.24
-1832.67
671.283
-1581.83
749.256
-1392.28
796.649
-1259.17
797.1
-1144.16
774.255
-1034.22
735.109
-922.576
686.371
-807.972
633.796
-693.111
581.214
-578.519
524.134
-476.009
453.137
-417.638
367.426
-433.522
275.269
-542.24
188.269
-714.18
115.719
-893.293
57.5383
-964.922
-766.161
-50.508
-1038.3
-46.3214
-1960.84
-29.2187
-1849.77
-17.0691
-1593.98
-8.10805
-1401.23
-2.31236
-1264.96
16.0071
-1162.47
49.728
-1067.94
105.004
-977.844
185.731
-888.69
292.935
-800.308
425.979
-711.555
573.309
-623.335
704.105
-548.429
778.683
-508.097
760.115
-523.669
639.364
-593.428
434.717
-688.644
204.843
-735.047
-561.319
-105.328
-932.971
-76.7573
-1989.41
35.9967
-1962.52
137.482
-1695.46
227.942
-1491.68
313.236
-1350.25
396.593
-1245.82
480.255
-1151.59
564.685
-1062.27
650.982
-974.981
739.769
-889.092
831.616
-803.396
925.175
-716.892
1007.73
-630.979
1051.53
-551.896
1019.51
-491.651
888.214
-462.127
654.182
-454.612
352.236
-433.1
-209.082
15.4935
-948.462
49.795
-2023.71
109.677
-2022.4
157.593
-1743.37
210.384
-1544.47
268.98
-1408.84
329.188
-1306.03
385.171
-1207.57
434.967
-1112.06
478.166
-1018.18
515.62
-926.545
549.248
-837.022
581.376
-749.018
611.666
-661.268
633.51
-573.739
628.493
-486.633
571.482
-405.115
438.361
-321.491
228.306
-223.044
19.2235
174.224
-1122.68
238.813
-2088.29
260.714
-2044.3
289.708
-1772.36
340.661
-1595.42
399.6
-1467.78
460.542
-1366.96
518.802
-1265.83
572.198
-1165.46
617.014
-1062.99
649.571
-959.099
666.621
-854.068
666.482
-748.877
649.086
-643.868
614.857
-539.509
561.025
-432.798
479.69
-323.78
354.143
-195.943
175.579
-44.4779
194.802
338.602
-1461.28
433.389
-2183.08
423.76
-2034.67
446.034
-1794.63
510.299
-1659.69
587.002
-1544.48
670.576
-1450.54
753.878
-1349.13
832.708
-1244.29
898.238
-1128.52
944.276
-1005.14
965.945
-875.737
960.033
-742.964
923.54
-607.376
854.25
-470.218
749.818
-328.366
612.927
-186.888
433.273
-16.2889
218.394
170.402
413.196
376.83
-1838.11
394.691
-2200.94
349.894
-1989.87
371.724
-1816.46
440.371
-1728.34
524.53
-1628.64
624.442
-1550.45
727.947
-1452.63
824.616
-1340.95
897.941
-1201.84
942.417
-1049.61
955.452
-888.772
935.451
-722.962
876.714
-548.639
772.39
-365.893
609.485
-165.461
402.85
19.7486
253.076
133.487
104.883
318.597
518.079
173.541
-2011.66
52.4746
-2079.87
-29.367
-1908.03
-60.8218
-1785.01
-72.8517
-1716.31
-73.4708
-1628.02
-62.6627
-1561.26
-51.5884
-1463.71
-54.5397
-1338
-82.103
-1174.28
-130.075
-1001.64
-191.155
-827.695
-261.426
-652.694
-338.195
-471.874
-409.673
-294.416
-452.948
-122.19
-456.604
23.404
-448.116
124.998
-337.32
207.801
180.759
-98.0581
-1913.6
-230.892
-1947.04
-341.164
-1797.76
-457.491
-1668.68
-577.344
-1596.45
-699.946
-1505.42
-826.062
-1435.14
-956.812
-1332.96
-1095.03
-1199.79
-1239.07
-1030.24
-1386.1
-854.613
-1531.44
-682.349
-1667.23
-516.905
-1776.56
-362.548
-1832.93
-238.048
-1785.52
-169.597
-1590.89
-171.223
-1218.47
-247.421
-622.274
-388.399
-441.515
-171.078
-1742.52
-230.608
-1887.51
-324.1
-1704.27
-456.292
-1536.49
-596.783
-1455.96
-760.275
-1341.93
-938.54
-1256.88
-1123.32
-1148.18
-1293.51
-1029.6
-1435.81
-887.936
-1547.81
-742.611
-1627.64
-602.525
-1664.83
-479.716
-1641.75
-385.628
-1542.29
-337.507
-1349.71
-362.18
-1042.37
-478.558
-629.046
-660.75
-227.158
-790.288
-668.673
-27.0092
-1715.51
9.67113
-1924.19
34.2766
-1728.87
32.9908
-1535.2
27.0256
-1450
7.44462
-1322.35
-22.7144
-1226.72
-54.9524
-1115.95
-70.6051
-1013.95
-51.2491
-907.293
8.28449
-802.146
105.889
-700.132
233.573
-607.402
378.895
-530.952
522.556
-481.17
629.533
-469.157
644.974
-493.999
523.69
-539.467
276.145
-542.744
-392.527
55.1377
-1770.65
102.854
-1971.91
155.378
-1781.4
206.55
-1586.38
259.733
-1503.19
314.208
-1376.83
369.441
-1281.95
428.14
-1174.65
491.737
-1077.55
566.886
-982.447
655.913
-891.175
757.666
-801.887
863.689
-713.427
957.858
-625.123
1014.35
-537.659
999.793
-454.607
887.531
-381.738
662.297
-314.235
351.052
-231.502
-41.4752
117.837
-1888.49
144.068
-1998.14
195.446
-1832.78
255.446
-1646.38
323.721
-1571.46
388.768
-1441.88
458.848
-1352.04
529.871
-1245.67
603.566
-1151.25
675.501
-1054.38
742.551
-958.226
799.506
-858.843
840.547
-754.469
859.135
-643.712
849.087
-527.614
800.255
-405.776
698.611
-280.096
524.59
-140.216
280.815
12.2694
239.339
134.493
-2022.99
123.631
-1987.28
168.828
-1877.98
223.46
-1701.01
289.474
-1637.48
353.22
-1505.63
426.044
-1424.86
501.732
-1321.36
585.821
-1235.34
673.94
-1142.5
762.246
-1046.54
838.345
-934.944
886.295
-802.421
891.386
-648.805
848.948
-485.178
759.875
-316.705
622.943
-143.166
427.62
55.1046
219.031
220.855
458.37
75.3767
-2098.36
33.7265
-1945.63
48.9292
-1893.18
71.0733
-1723.16
100.13
-1666.54
133.916
-1539.41
175.311
-1466.26
223.808
-1369.86
280.862
-1292.39
342.886
-1204.53
403.213
-1106.86
446.056
-977.788
454.153
-810.52
422.47
-617.124
366.107
-428.817
299.751
-250.352
231.589
-75.0083
158.791
127.898
48.3795
331.263
506.75
-20.6042
-2077.76
-76.6316
-1889.61
-110.649
-1859.17
-141.158
-1692.65
-172.727
-1634.97
-196.521
-1515.62
-221.337
-1441.45
-240.046
-1351.16
-257.194
-1275.25
-271.263
-1190.46
-286.157
-1091.97
-304.152
-959.796
-323.397
-791.277
-332.725
-607.799
-323.95
-437.595
-307.65
-266.658
-301.425
-81.2361
-294.949
121.419
-252.838
289.15
253.912
-72.5185
-2005.24
-152.957
-1809.17
-219.75
-1792.37
-280.351
-1632.05
-342.607
-1572.71
-395.054
-1463.18
-450.295
-1386.21
-501.259
-1300.19
-553.263
-1223.24
-601.386
-1142.34
-640.159
-1053.2
-654.588
-945.368
-628.712
-817.155
-560.948
-675.564
-476.018
-522.529
-405.707
-336.971
-380.136
-106.81
-361.987
103.267
-285.73
212.89
-31.8181
-160.112
-1845.13
-345.941
-1623.34
-491.545
-1646.77
-604.942
-1518.66
-708.109
-1469.55
-785.864
-1385.42
-852.584
-1319.49
-904.055
-1248.72
-944.362
-1182.94
-969.58
-1117.12
-972.101
-1050.68
-938.228
-979.242
-856.839
-898.544
-729.618
-802.786
-568.097
-684.05
-373.502
-531.567
-148.808
-331.505
34.5594
-80.1024
135.401
112.046
103.583
-195.015
-1650.12
-431.118
-1387.24
-681.056
-1396.83
-889.373
-1310.34
-1088.74
-1270.18
-1255.91
-1218.25
-1400.82
-1174.58
-1518.98
-1130.56
-1613.23
-1088.68
-1682.79
-1047.57
-1726.39
-1007.08
-1739.9
-965.738
-1717.03
-921.416
-1648.51
-871.304
-1520.75
-811.814
-1313.73
-738.579
-1001.68
-643.564
-575.554
-506.224
-155.597
-307.912
-52.014
-675.118
-1087.36
-1509.19
-1844.53
-2139.71
-2382.96
-2582.54
-2738.11
-2851.79
-2924.36
-2956.43
-2947.17
-2893.59
-2789.89
-2626.71
-2390.29
-2058.85
-1590.07
-922.986
-675.13
1650.13
-1087.38
1387.25
-1509.23
1396.85
-1844.58
1310.35
-2139.77
1270.19
-2383.03
1218.26
-2582.62
1174.59
-2738.19
1130.57
-2851.89
1088.69
-2924.47
1047.58
-2956.55
1007.09
-2947.3
965.744
-2893.72
921.419
-2790.02
871.309
-2626.86
811.837
-2390.5
738.638
-2059.18
643.678
-1590.55
506.378
-923.511
307.957
51.4894
-195.002
1845.13
-431.08
1623.33
-680.995
1646.76
-889.279
1518.64
-1088.61
1469.53
-1255.74
1385.39
-1400.6
1319.45
-1518.71
1248.68
-1612.91
1182.9
-1682.41
1117.08
-1725.96
1050.64
-1739.42
979.202
-1716.51
898.512
-1647.97
802.773
-1520.22
684.084
-1313.28
531.703
-1001.39
331.785
-575.428
80.4157
-155.5
-111.971
-104.01
-160.057
2005.19
-345.843
1809.12
-491.399
1792.32
-604.751
1631.99
-707.875
1572.65
-785.589
1463.11
-852.273
1386.14
-903.712
1300.12
-943.99
1223.17
-969.169
1142.26
-971.631
1053.1
-937.68
945.251
-856.237
817.069
-729.025
675.561
-567.508
522.568
-372.772
336.968
-147.837
106.852
35.6244
-103.044
136.243
-212.587
32.2327
-72.5479
2077.74
-153.026
1889.6
-219.855
1859.15
-280.514
1692.65
-342.825
1634.96
-395.344
1515.63
-450.665
1441.46
-501.723
1351.18
-553.827
1275.28
-602.044
1190.48
-640.863
1091.92
-655.253
959.642
-629.261
791.078
-561.401
607.701
-476.42
437.588
-406.01
266.559
-380.173
81.0168
-361.557
-121.659
-285.139
-289.003
-252.906
-20.7351
2098.48
-76.8192
1945.68
-110.93
1893.26
-141.546
1723.27
-173.229
1666.64
-197.144
1539.54
-222.092
1466.41
-240.944
1370.04
-258.25
1292.59
-272.488
1204.72
-287.554
1106.99
-305.686
977.775
-324.968
810.362
-334.205
616.94
-325.307
428.692
-308.998
250.253
-302.913
74.9342
-296.364
-128.206
-253.792
-331.573
-506.698
75.2711
2023.21
33.5374
1987.42
48.6472
1878.15
70.701
1701.21
99.6545
1637.69
133.347
1505.85
174.643
1425.11
223.05
1321.63
280.008
1235.63
341.928
1142.8
402.112
1046.8
444.76
935.127
452.657
802.465
420.894
648.704
364.628
484.958
298.504
316.377
230.722
142.717
158.127
-55.6094
47.8708
-221.317
-458.827
134.578
1888.63
123.59
1998.41
168.736
1833
223.339
1646.61
289.331
1571.7
353.064
1442.12
425.885
1352.29
501.581
1245.93
585.687
1151.52
673.827
1054.66
762.146
958.486
838.221
859.052
886.093
754.594
891.075
643.723
848.524
527.509
759.351
405.551
622.329
279.74
427.017
139.703
218.704
-13.0026
-240.124
118.089
1770.54
144.191
1972.3
195.518
1781.68
255.501
1586.63
323.792
1503.41
388.823
1377.09
458.891
1282.22
529.879
1174.95
603.545
1077.86
675.449
982.754
742.46
891.475
799.336
802.175
840.222
713.708
858.521
625.423
848.128
537.902
799.031
454.648
697.315
381.456
523.49
313.529
280.113
230.375
39.9895
55.4479
1715.09
103.141
1924.61
155.676
1729.14
206.986
1535.32
260.338
1450.06
315.032
1322.4
370.537
1226.72
429.545
1115.94
493.41
1013.99
568.673
907.492
657.56
802.588
758.831
700.906
864.05
608.489
957.098
532.376
1012.8
482.204
998.144
469.301
886.121
493.48
661.385
538.265
350.682
541.078
390.672
-26.2958
1741.39
10.8299
1887.49
36.042
1703.93
35.4695
1535.89
30.2211
1455.31
11.4439
1341.17
-17.8429
1256
-49.1179
1147.21
-63.8054
1028.68
-43.5636
887.25
16.745
742.279
114.968
602.683
243.096
480.361
388.823
386.648
532.549
338.478
638.677
363.173
651.953
480.204
527.749
662.469
277.744
791.084
668.416
-170.806
1912.19
-229.78
1946.46
-322.79
1796.94
-454.62
1667.72
-594.778
1595.46
-758.008
1504.4
-935.995
1433.99
-1120.39
1331.61
-1289.99
1198.28
-1431.47
1028.74
-1542.39
853.199
-1620.8
681.095
-1656.43
515.99
-1631.94
362.154
-1531.73
238.269
-1339.21
170.658
-1032.62
173.606
-621.47
251.322
-223.479
393.093
444.937
-99.2369
2011.43
-231.945
2079.17
-342.43
1907.42
-459.276
1784.57
-579.728
1715.91
-703.088
1627.76
-830.112
1561.01
-961.812
1463.31
-1100.88
1337.34
-1245.59
1173.45
-1393.13
1000.74
-1538.74
826.699
-1674.36
651.613
-1783.16
470.95
-1838.55
293.657
-1790.12
122.226
-1595.72
-20.7905
-1219.8
-124.599
-621.306
-205.403
-176.369
172.113
1839.32
50.5179
2200.76
-31.758
1989.7
-63.8407
1816.65
-76.6085
1728.68
-77.9626
1629.12
-67.9471
1551
-57.7348
1453.1
-61.5643
1341.17
-89.8419
1201.72
-138.258
1049.16
-199.644
888.085
-270.199
722.167
-346.939
547.688
-418.118
364.834
-461.207
165.313
-464.664
-17.3355
-455.279
-133.985
-341.289
-319.396
-517.658
376.786
1462.53
394.197
2183.35
349.123
2034.77
370.757
1795.01
439.212
1660.22
523.24
1545.09
623.049
1451.19
726.373
1349.77
822.704
1244.84
895.516
1128.91
939.342
1005.33
951.69
875.736
931.075
742.781
871.749
607.013
766.925
469.656
604.582
327.655
401.242
186.003
251.967
15.2871
103.959
-171.39
-413.698
339.504
1123.02
434.388
2088.47
424.642
2044.52
447.024
1772.63
511.445
1595.8
588.286
1468.24
671.989
1367.48
755.383
1266.37
834.219
1166
899.636
1063.49
945.448
959.519
966.817
854.366
960.574
749.024
923.741
643.846
854.089
539.307
749.354
432.389
612.326
323.03
432.724
194.889
218.302
43.0312
-195.397
175.592
947.431
240.577
2023.48
261.649
2023.44
289.902
1744.38
340.614
1545.09
399.543
1409.31
460.529
1306.5
518.848
1208.05
572.328
1112.52
617.286
1018.53
650.042
926.763
667.312
837.094
667.395
748.94
650.093
661.148
615.74
573.66
561.612
486.516
479.876
404.766
354.091
320.673
175.272
221.85
-20.1251
17.8629
929.568
53.6507
1987.69
115.005
1962.09
163.199
1696.18
215.513
1492.77
273.37
1351.46
332.838
1247.03
388.051
1152.84
437.001
1063.57
479.076
976.456
514.949
890.89
546.451
805.593
575.749
719.64
602.87
634.026
622.168
554.361
616.171
492.512
560.156
460.781
429.755
451.074
222.985
428.618
202.86
-98.3798
1027.95
-72.1343
1961.45
35.2386
1854.72
134.42
1597
223.559
1403.64
307.418
1267.6
388.713
1165.73
469.997
1071.56
551.523
982.043
634.488
893.492
720.56
804.818
810.417
715.735
900.943
629.114
981.778
553.191
1027.22
508.916
1000.27
519.461
876.085
584.971
649.195
677.963
352.144
725.669
555.005
-20.8003
1048.75
-5.06335
1945.71
8.9823
1840.67
17.3693
1588.62
26.0277
1394.98
33.8365
1259.79
54.3691
1145.2
87.2039
1038.72
138.014
931.233
211.105
820.4
307.989
707.934
427.868
595.855
565.441
491.541
696.121
422.511
776.919
428.118
766.788
529.591
652.133
699.626
448.21
881.886
214.762
959.117
769.766
130.266
402.046
584.733
700.592
783.081
835.559
839.73
826.438
795.028
751.281
699.461
642.494
582.279
511.343
424.636
328.535
233.786
149.399
76.4104
)
;

boundaryField
{
    outletWall
    {
        type            calculated;
        value           nonuniform List<scalar> 
60
(
9806.17
-4409.46
-1446.83
2218.97
3397.87
-896.177
-13165.3
-16881.4
-14346.7
-9180.06
-320.68
4522.98
-15398.5
-21765.6
-21283.6
-19961.4
-17545.2
-15421.9
-13180.7
-10302.4
3080.16
2965.37
3035.51
2700.75
2424.04
2252.06
2145.05
2076.31
2023.78
1983.06
1949.07
1918.8
1890.62
1864.56
1841.47
1823.03
1810.64
1804.38
1809.55
1832.36
2777.03
-5703.03
-9469.12
-12705.5
-18666
-19651.3
2679.32
27111.9
32790.2
31040.6
25388.5
17078.1
13790.9
13209.2
13459.4
13389.2
12801.6
12064.2
10591.3
9353.01
)
;
    }
    fineWalls
    {
        type            calculated;
        value           uniform 0;
    }
    fineFrontAndBack
    {
        type            calculated;
        value           nonuniform List<scalar> 
960
(
-3.59459e-12
-1.52272e-11
-2.81183e-12
-3.24707e-12
-1.83071e-11
-2.92349e-12
-3.14126e-12
-1.81772e-12
-1.71219e-11
-3.61512e-12
-3.4254e-12
-1.81804e-11
-2.85797e-12
-2.57663e-12
-1.78593e-11
-3.25781e-12
-3.13024e-12
-1.84479e-11
-2.93162e-12
-2.91696e-12
-3.88736e-13
-6.29086e-13
-6.05211e-13
-5.40621e-13
-5.18671e-13
-4.77555e-13
-5.27949e-12
-2.82038e-13
-1.6631e-13
1.61557e-14
2.15186e-13
3.3866e-13
3.50289e-13
3.21538e-13
2.44614e-13
9.31556e-14
-6.9501e-14
-2.08111e-13
-3.13201e-13
-5.29579e-13
-1.36959e-11
-2.77751e-12
-3.46207e-12
-3.915e-12
-1.13072e-11
-2.11165e-13
5.80099e-13
-7.0097e-13
3.54959e-11
5.37112e-12
-2.25877e-12
1.61848e-11
4.05166e-12
4.43772e-12
4.6467e-12
3.21892e-11
5.26043e-12
4.3824e-12
3.57055e-12
2.03705e-11
8.5522e-13
6.54394e-13
5.75836e-13
4.90972e-13
3.84889e-13
2.66678e-13
1.72465e-13
7.56418e-14
3.54431e-14
1.23753e-13
2.60576e-13
3.84932e-13
4.74106e-13
7.77112e-12
5.86068e-13
5.97185e-13
5.93253e-13
6.26502e-13
6.26213e-13
4.02927e-13
3.15652e-12
3.48179e-12
2.60075e-11
5.72413e-12
5.52898e-12
2.32202e-11
3.64105e-12
2.4586e-12
6.95158e-12
-2.90604e-12
-9.85023e-13
1.51179e-11
4.59672e-12
4.06645e-12
3.83043e-12
1.44688e-11
2.64881e-12
3.08879e-12
1.32489e-11
4.54599e-12
-3.50443e-11
-3.21302e-11
-2.76372e-11
-2.18959e-11
-1.36132e-11
-5.64378e-12
-1.10614e-12
-1.02742e-12
2.23825e-13
-2.21301e-12
-5.3648e-15
5.66524e-12
7.68388e-12
6.66315e-12
4.93325e-12
4.18577e-12
2.73537e-12
5.02577e-12
-1.24718e-13
-3.49438e-11
-3.18662e-11
-2.7343e-11
-2.15018e-11
-1.32577e-11
-5.44769e-12
-1.08053e-12
-1.01785e-12
3.43723e-14
-2.01338e-12
2.87476e-13
5.80359e-12
7.68138e-12
6.64613e-12
5.0339e-12
4.94614e-12
3.76092e-12
4.38277e-12
-1.05161e-12
-3.48075e-11
-3.15313e-11
-2.6961e-11
-2.09949e-11
-1.28031e-11
-5.2003e-12
-1.04857e-12
-1.00589e-12
-2.75103e-13
-1.72618e-12
7.02638e-13
6.00176e-12
7.67615e-12
6.61569e-12
5.27025e-12
1.07425e-11
1.13896e-11
6.72923e-12
-1.44836e-12
-3.46495e-11
-3.11684e-11
-2.65367e-11
-2.04396e-11
-1.23092e-11
-4.93595e-12
-1.01537e-12
-9.96673e-13
-4.74418e-13
-1.40635e-12
1.19525e-12
6.2357e-12
7.62383e-12
6.56573e-12
1.44292e-11
2.83512e-11
3.2591e-11
1.73507e-11
2.20291e-12
-3.44726e-11
-3.07856e-11
-2.60782e-11
-1.98487e-11
-1.17893e-11
-4.66232e-12
-9.81989e-13
-9.93481e-13
-5.92017e-13
-1.05026e-12
1.7505e-12
6.47556e-12
7.21477e-12
6.96604e-12
3.86666e-11
5.32134e-11
5.53184e-11
3.68431e-11
4.86372e-12
-3.42773e-11
-3.03829e-11
-2.55855e-11
-1.92236e-11
-1.12461e-11
-4.38311e-12
-9.5649e-13
-9.9478e-13
-6.44973e-13
-6.55227e-13
2.33389e-12
6.53765e-12
6.59086e-12
1.62529e-11
6.11836e-11
6.28755e-11
5.47509e-11
5.32518e-11
1.78908e-11
-3.40638e-11
-2.99592e-11
-2.5058e-11
-1.85666e-11
-1.06825e-11
-4.08788e-12
-8.93406e-13
-9.95386e-13
-5.73647e-13
-2.1682e-13
2.91994e-12
6.34226e-12
7.97069e-12
3.53411e-11
6.72247e-11
6.27611e-11
5.29719e-11
3.322e-11
1.45393e-11
-3.38322e-11
-2.95134e-11
-2.44961e-11
-1.78789e-11
-1.01007e-11
-3.82834e-12
-1.03135e-12
-9.8158e-13
-3.19297e-13
1.48671e-13
3.14196e-12
5.71189e-12
1.08863e-11
4.6525e-11
7.24057e-11
6.88102e-11
6.1173e-11
4.29809e-11
3.1163e-11
-3.35823e-11
-2.90444e-11
-2.3903e-11
-1.71768e-11
-9.53152e-12
-3.43574e-12
-1.40594e-13
-9.92791e-13
-1.26988e-13
5.08764e-13
4e-12
7.08181e-12
1.49534e-11
5.3638e-11
6.85612e-11
6.80878e-11
6.55579e-11
6.25743e-11
5.79042e-11
-3.33118e-11
-2.85521e-11
-2.3287e-11
-1.64575e-11
-8.90442e-12
-3.44009e-12
-3.9456e-12
-9.46168e-13
1.0136e-13
1.07606e-12
3.20149e-12
2.54246e-12
1.60641e-11
3.46874e-11
2.35798e-11
3.59968e-11
4.98488e-11
5.74698e-11
4.21191e-11
-3.30145e-11
-2.80374e-11
-2.26658e-11
-1.5763e-11
-8.37999e-12
-3.2343e-12
-1.79898e-12
-8.69944e-13
3.64448e-13
1.37125e-12
1.99769e-12
6.62643e-13
1.48724e-11
1.72672e-11
-2.14252e-11
-3.15343e-11
7.37425e-12
6.18758e-11
7.77228e-11
-3.26829e-11
-2.7506e-11
-2.20721e-11
-1.51547e-11
-7.95277e-12
-2.96318e-12
-2.81097e-13
-6.52085e-13
6.59968e-13
1.36254e-12
1.30996e-12
1.62489e-12
1.18417e-11
-2.16957e-12
-5.78642e-11
-6.36752e-11
-5.53393e-11
-4.39609e-11
-2.84817e-11
-3.2308e-11
-2.69536e-11
-2.15288e-11
-1.46835e-11
-7.65148e-12
-2.68094e-12
-1.05087e-13
-4.27989e-13
8.02736e-13
1.27521e-12
1.31744e-12
2.77889e-12
7.3757e-12
-1.31999e-11
-5.17961e-11
-4.70607e-11
-3.79258e-11
-3.58604e-11
-2.77877e-11
-3.18474e-11
-2.63219e-11
-2.10029e-11
-1.43494e-11
-7.5045e-12
-2.45531e-12
7.04209e-14
-5.05477e-13
6.10162e-13
1.26487e-12
1.84652e-12
3.57456e-12
3.26692e-12
-1.96003e-11
-5.26462e-11
-5.15589e-11
-4.09975e-11
-4.74798e-11
-1.3182e-11
-3.11535e-11
-2.54608e-11
-2.04011e-11
-1.41139e-11
-7.57071e-12
-2.47855e-12
3.74343e-14
-9.53055e-13
2.206e-13
1.38697e-12
2.53918e-12
4.03623e-12
3.94636e-13
-2.21157e-11
-5.06427e-11
-5.14925e-11
-4.10279e-11
-4.00035e-11
-3.03681e-11
-3.00295e-11
-2.4239e-11
-1.9658e-11
-1.39712e-11
-7.98704e-12
-3.09997e-12
-6.06423e-13
-1.66584e-12
5.76687e-14
1.78921e-12
3.07598e-12
4.15828e-12
-1.20814e-12
-2.18109e-11
-4.71115e-11
-4.88973e-11
-4.21266e-11
-3.72442e-11
-3.64984e-11
-2.86074e-11
-2.28808e-11
-1.89622e-11
-1.40996e-11
-8.96075e-12
-4.64332e-12
-2.30589e-12
-2.71077e-12
4.89053e-13
2.70967e-12
3.32664e-12
3.88551e-12
-1.76013e-12
-2.00434e-11
-4.54286e-11
-4.66494e-11
-4.25066e-11
-3.75074e-11
-3.25859e-11
-2.68798e-11
-2.13546e-11
-1.80787e-11
-1.41522e-11
-1.0081e-11
-6.59346e-12
-4.58447e-12
-3.63942e-12
1.82165e-12
4.00329e-12
3.4192e-12
3.56005e-12
-1.18773e-12
-1.79943e-11
-4.439e-11
-4.64778e-11
-4.26083e-11
-3.70505e-11
-3.05467e-11
-2.66899e-11
-2.09353e-11
-1.89215e-11
-1.55119e-11
-1.19044e-11
-8.50801e-12
-6.09557e-12
-3.37537e-12
4.30344e-12
5.07154e-12
3.29053e-12
3.02065e-12
3.33751e-13
-1.59451e-11
-4.19779e-11
-4.68091e-11
-4.27349e-11
-3.67225e-11
-2.92374e-11
-1.33816e-11
-1.20995e-11
-1.37165e-11
-1.14813e-11
-8.0555e-12
-4.13595e-12
-1.1417e-12
2.2752e-12
7.41538e-12
4.8549e-12
3.64114e-12
5.35521e-12
4.72917e-12
-1.62956e-11
-4.02434e-11
-4.68668e-11
-4.27868e-11
-3.64626e-11
-2.8552e-11
3.59459e-12
1.52272e-11
2.81183e-12
3.24707e-12
1.83071e-11
2.92349e-12
3.14126e-12
1.81772e-12
1.71219e-11
3.61512e-12
3.4254e-12
1.81804e-11
2.85797e-12
2.57663e-12
1.78593e-11
3.25781e-12
3.13024e-12
1.84479e-11
2.93162e-12
2.91696e-12
3.88736e-13
6.29086e-13
6.05211e-13
5.40621e-13
5.18671e-13
4.77555e-13
5.27949e-12
2.82038e-13
1.6631e-13
-1.61557e-14
-2.15186e-13
-3.3866e-13
-3.50289e-13
-3.21538e-13
-2.44614e-13
-9.31556e-14
6.9501e-14
2.08111e-13
3.13201e-13
5.29579e-13
1.36959e-11
2.77751e-12
3.46207e-12
3.915e-12
1.13072e-11
2.11165e-13
-5.80099e-13
7.0097e-13
-3.54959e-11
-5.37112e-12
2.25877e-12
-1.61848e-11
-4.05166e-12
-4.43772e-12
-4.6467e-12
-3.21892e-11
-5.26043e-12
-4.3824e-12
-3.57055e-12
-2.03705e-11
-8.5522e-13
-6.54394e-13
-5.75836e-13
-4.90972e-13
-3.84889e-13
-2.66678e-13
-1.72465e-13
-7.56418e-14
-3.54431e-14
-1.23753e-13
-2.60576e-13
-3.84932e-13
-4.74106e-13
-7.77112e-12
-5.86068e-13
-5.97185e-13
-5.93253e-13
-6.26502e-13
-6.26213e-13
-4.02927e-13
-3.15652e-12
-3.48179e-12
-2.60075e-11
-5.72413e-12
-5.52898e-12
-2.32202e-11
-3.64105e-12
-2.4586e-12
-6.95158e-12
2.90604e-12
9.85023e-13
-1.51179e-11
-4.59672e-12
-4.06645e-12
-3.83043e-12
-1.44688e-11
-2.64881e-12
-3.08879e-12
-1.32489e-11
-4.54599e-12
3.50443e-11
3.21302e-11
2.76372e-11
2.18959e-11
1.36132e-11
5.64378e-12
1.10614e-12
1.02742e-12
-2.23825e-13
2.21301e-12
5.3648e-15
-5.66524e-12
-7.68388e-12
-6.66315e-12
-4.93325e-12
-4.18577e-12
-2.73537e-12
-5.02577e-12
1.24718e-13
3.49438e-11
3.18662e-11
2.7343e-11
2.15018e-11
1.32577e-11
5.44769e-12
1.08053e-12
1.01785e-12
-3.43723e-14
2.01338e-12
-2.87476e-13
-5.80359e-12
-7.68138e-12
-6.64613e-12
-5.0339e-12
-4.94614e-12
-3.76092e-12
-4.38277e-12
1.05161e-12
3.48075e-11
3.15313e-11
2.6961e-11
2.09949e-11
1.28031e-11
5.2003e-12
1.04857e-12
1.00589e-12
2.75103e-13
1.72618e-12
-7.02638e-13
-6.00176e-12
-7.67615e-12
-6.61569e-12
-5.27025e-12
-1.07425e-11
-1.13896e-11
-6.72923e-12
1.44836e-12
3.46495e-11
3.11684e-11
2.65367e-11
2.04396e-11
1.23092e-11
4.93595e-12
1.01537e-12
9.96673e-13
4.74418e-13
1.40635e-12
-1.19525e-12
-6.2357e-12
-7.62383e-12
-6.56573e-12
-1.44292e-11
-2.83512e-11
-3.2591e-11
-1.73507e-11
-2.20291e-12
3.44726e-11
3.07856e-11
2.60782e-11
1.98487e-11
1.17893e-11
4.66232e-12
9.81989e-13
9.93481e-13
5.92017e-13
1.05026e-12
-1.7505e-12
-6.47556e-12
-7.21477e-12
-6.96604e-12
-3.86666e-11
-5.32134e-11
-5.53184e-11
-3.68431e-11
-4.86372e-12
3.42773e-11
3.03829e-11
2.55855e-11
1.92236e-11
1.12461e-11
4.38311e-12
9.5649e-13
9.9478e-13
6.44973e-13
6.55227e-13
-2.33389e-12