/*--------------------------------*- C++ -*----------------------------------*\
| =========                 |                                                 |
| \\      /  F ield         | OpenFOAM: The Open Source CFD Toolbox           |
|  \\    /   O peration     | Version:  4.1                                   |
|   \\  /    A nd           | Web:      www.OpenFOAM.org                      |
|    \\/     M anipulation  |                                                 |
\*---------------------------------------------------------------------------*/
FoamFile
{
    version     2.0;
    format      ascii;
    class       volVectorField;
    location    "26";
    object      U;
}
// * * * * * * * * * * * * * * * * * * * * * * * * * * * * * * * * * * * * * //

dimensions      [0 1 -1 0 0 0 0];

internalField   nonuniform List<vector> 
1280
(
(-2.59772e-15 -0.908366 -1.60061)
(-2.588e-15 -0.282783 -1.49867)
(-1.99347e-15 -0.701998 -1.38804)
(-2.34657e-15 -0.314303 -1.35182)
(-3.11147e-15 -0.00657175 -1.62839)
(-2.11273e-15 -0.096114 -1.20264)
(-2.27011e-15 0.147419 -1.30749)
(-1.13469e-15 0.304779 -1.30757)
(-3.05638e-15 0.684993 -1.91328)
(-2.64914e-15 0.663639 -1.60561)
(-2.52115e-15 0.96667 -1.55698)
(-2.92531e-15 1.36601 -2.38217)
(-2.06538e-15 1.38221 -2.00821)
(-1.86321e-15 1.75865 -1.90627)
(-2.98619e-15 2.37877 -3.0981)
(-2.35433e-15 2.26106 -2.65786)
(-2.26214e-15 2.94533 -2.52638)
(-3.1354e-15 2.9834 -4.29896)
(-2.13244e-15 4.19084 -2.63826)
(-2.10801e-15 3.11085 -5.42873)
(-1.59482e-15 4.23694 0.0114003)
(-2.58086e-15 4.51634 5.43082)
(-2.48292e-15 4.36846 7.55492)
(-2.21793e-15 4.86732 8.01186)
(-2.12788e-15 5.10079 7.91492)
(-1.9592e-15 5.52162 8.64684)
(-1.11294e-15 4.26925 6.10005)
(-1.15708e-15 8.24949 12.6183)
(-6.82297e-16 8.45522 13.408)
(6.62799e-17 8.53255 13.9093)
(8.82814e-16 8.52282 14.0931)
(1.38937e-15 8.43362 13.9834)
(1.43708e-15 8.30069 13.7418)
(1.31913e-15 8.15219 13.5768)
(1.00354e-15 8.01811 13.4892)
(3.82177e-16 7.87848 13.4803)
(-2.85132e-16 7.88098 13.5558)
(-8.53789e-16 7.76372 13.5848)
(-1.28493e-15 8.07371 13.5545)
(-2.17263e-15 7.89151 11.8373)
(-2.38396e-15 11.0519 11.5965)
(-2.23093e-15 6.18044 7.57578)
(-2.78078e-15 5.20526 7.35874)
(-3.05065e-15 4.47232 7.32961)
(-1.12283e-15 3.44742 7.68962)
(-1.6961e-16 1.91162 4.64928)
(4.65943e-16 1.48365 4.31227)
(-5.63028e-16 0.945231 4.39251)
(8.47093e-15 0.181355 2.71793)
(4.31415e-15 -0.0589846 1.19541)
(-1.81428e-15 -0.334468 1.90932)
(2.81719e-15 -1.00918 4.00976)
(3.25435e-15 -1.9477 5.01163)
(3.56443e-15 -2.59141 5.04644)
(3.73229e-15 -3.01088 5.30704)
(5.603e-15 -4.89062 8.35935)
(4.26303e-15 -5.65966 7.42528)
(3.52e-15 -6.49585 7.62934)
(2.86791e-15 -7.46576 7.83035)
(3.35253e-15 -12.3569 11.7345)
(3.5086e-15 -8.73809 11.8029)
(2.68469e-15 -8.92279 13.3681)
(2.3624e-15 -8.61165 13.1886)
(2.01424e-15 -8.73202 12.9368)
(1.57903e-15 -8.71362 12.6257)
(1.09406e-15 -8.83732 12.4096)
(7.07547e-16 -8.93531 12.3296)
(3.10325e-16 -9.05148 12.436)
(1.45408e-16 -9.14294 12.6035)
(5.07705e-16 -9.17596 12.5905)
(1.06903e-15 -9.14776 12.3424)
(1.57921e-15 -9.03849 11.8124)
(1.94505e-15 -8.7522 11.0328)
(1.63818e-15 -5.02039 4.28796)
(2.40438e-15 -5.79294 7.65396)
(2.44999e-15 -5.33704 6.9405)
(2.43386e-15 -5.07705 7.07092)
(2.57026e-15 -4.56578 6.64043)
(2.56908e-15 -4.68189 4.54184)
(1.65303e-15 -4.37612 -0.693897)
(2.28114e-15 -3.32214 -5.4222)
(2.5162e-15 -4.18227 -2.70419)
(4.42022e-15 -3.62462 -4.09836)
(4.13668e-15 -3.03001 -2.69363)
(3.99565e-15 -2.44865 -2.48689)
(4.0098e-15 -2.75605 -2.95004)
(2.67435e-15 -1.53257 -1.9435)
(1.77677e-15 -1.23098 -1.85378)
(1.31073e-15 -1.5314 -2.43942)
(-2.62246e-15 -0.549423 -1.97727)
(-1.23419e-15 0.166189 -2.00691)
(3.15519e-15 -0.173989 -2.40879)
(3.3811e-15 0.645708 -1.87395)
(2.93872e-15 0.945225 -2.10254)
(2.76815e-15 1.26294 -2.25248)
(2.45911e-15 1.69171 -3.07083)
(1.91423e-15 1.88028 -2.38398)
(2.23219e-15 2.56425 -2.32836)
(2.26959e-15 2.07038 -2.94003)
(3.28527e-15 3.21187 -3.20149)
(-3.89381e-15 -3.43289 1.52794)
(-3.57002e-15 -4.39033 1.6317)
(-3.0708e-15 -5.13174 1.59034)
(-2.43288e-15 -5.83416 1.53791)
(-1.51258e-15 -6.63108 1.36971)
(-6.27087e-16 -7.06854 1.07028)
(-1.22904e-16 -7.22047 0.787461)
(-1.14158e-16 -5.12077 0.167126)
(2.48695e-17 1.4981 0.216274)
(-2.4589e-16 -0.124434 0.632659)
(-5.96089e-19 -3.06958 0.633527)
(6.29472e-16 -4.80997 0.846987)
(8.53765e-16 -5.66467 0.79234)
(7.4035e-16 -4.42286 0.485482)
(5.48139e-16 -0.300645 -0.45008)
(4.65085e-16 1.19791 -2.60417)
(3.0393e-16 0.673016 -3.43766)
(5.58419e-16 -0.520985 -2.71049)
(-1.38575e-17 -1.43892 -2.78252)
(-3.88264e-15 -3.47416 1.51352)
(-3.54068e-15 -4.41861 1.63231)
(-3.03811e-15 -5.11875 1.59201)
(-2.38908e-15 -5.78755 1.5413)
(-1.47308e-15 -6.519 1.37455)
(-6.05299e-16 -6.92028 1.0827)
(-1.20059e-16 -6.98772 0.790924)
(-1.13094e-16 -4.93695 0.157945)
(3.81915e-18 1.36074 0.0277292)
(-2.23708e-16 -0.269053 0.725288)
(3.19417e-17 -3.12025 0.796123)
(6.44844e-16 -4.80928 1.08514)
(8.53486e-16 -5.4494 1.00185)
(7.38458e-16 -3.84114 0.476575)
(5.59322e-16 1.01253 -1.53375)
(5.49571e-16 2.1606 -4.13118)
(4.1788e-16 0.831613 -5.50081)
(4.86974e-16 -0.808166 -4.55793)
(-1.16845e-16 -1.46255 -2.91913)
(-3.86751e-15 -3.49809 1.50905)
(-3.50348e-15 -4.42796 1.63943)
(-2.99566e-15 -5.09472 1.5997)
(-2.33277e-15 -5.73598 1.55217)
(-1.42257e-15 -6.41973 1.38711)
(-5.77811e-16 -6.79244 1.10272)
(-1.16508e-16 -6.79394 0.794522)
(-1.11765e-16 -4.77297 0.145476)
(-3.0567e-17 1.25438 0.0686208)
(-1.91798e-16 -0.462481 0.83006)
(7.80709e-17 -3.22069 1.02485)
(6.66862e-16 -4.89563 1.42188)
(8.52905e-16 -5.36251 1.37523)
(7.35077e-16 -3.27314 0.608721)
(5.85583e-16 1.62094 -2.53394)
(1.19362e-15 2.94141 -5.07288)
(1.26551e-15 0.899278 -6.7289)
(7.47692e-16 -1.45691 -5.98778)
(-1.60929e-16 -1.88672 -3.38617)
(-3.84995e-15 -3.52659 1.51441)
(-3.46316e-15 -4.44323 1.65106)
(-2.94852e-15 -5.07872 1.61072)
(-2.27107e-15 -5.69534 1.56625)
(-1.36769e-15 -6.33744 1.40356)
(-5.48438e-16 -6.67902 1.12551)
(-1.12819e-16 -6.6182 0.801836)
(-1.10741e-16 -4.6234 0.142988)
(-5.27131e-17 1.09648 0.113663)
(-1.56261e-16 -0.678481 0.994971)
(1.32805e-16 -3.36156 1.30317)
(6.92856e-16 -4.99857 1.83883)
(8.47093e-16 -5.221 1.91165)
(7.29525e-16 -2.34504 0.876023)
(1.60324e-15 2.84692 -3.15514)
(3.15013e-15 3.88332 -4.799)
(3.62123e-15 1.25821 -6.36397)
(1.92786e-15 -2.21389 -6.52784)
(2.44768e-16 -2.9576 -4.05448)
(-3.83028e-15 -3.55949 1.52524)
(-3.42062e-15 -4.462 1.66699)
(-2.89758e-15 -5.06421 1.62592)
(-2.20541e-15 -5.65463 1.58514)
(-1.30993e-15 -6.25214 1.4258)
(-5.18035e-16 -6.5549 1.15266)
(-1.0911e-16 -6.42651 0.812126)
(-1.10387e-16 -4.47206 0.143261)
(-6.57797e-17 0.888197 0.171407)
(-1.16695e-16 -0.937685 1.19217)
(1.945e-16 -3.55837 1.62358)
(7.19507e-16 -5.15908 2.33779)
(8.01641e-16 -5.06932 2.59295)
(7.74004e-16 -1.10932 1.19572)
(4.29629e-15 3.90647 -1.9697)
(5.91259e-15 4.33844 -1.70235)
(6.14649e-15 1.48898 -2.77718)
(4.09368e-15 -2.17122 -5.15998)
(5.40413e-16 -3.35304 -4.20609)
(-3.80859e-15 -3.59248 1.54085)
(-3.37588e-15 -4.47996 1.68659)
(-2.84284e-15 -5.04912 1.64479)
(-2.13596e-15 -5.61386 1.60826)
(-1.24956e-15 -6.16713 1.45281)
(-4.87012e-16 -6.42606 1.18315)
(-1.06277e-16 -6.22978 0.826608)
(-1.10531e-16 -4.3239 0.144234)
(-7.16637e-17 0.627903 0.261327)
(-7.2803e-17 -1.24694 1.39818)
(2.59321e-16 -3.82317 1.97131)
(7.26406e-16 -5.40272 2.88532)
(7.32317e-16 -4.90283 3.2579)
(1.80587e-15 0.101969 1.60835)
(6.79818e-15 3.92326 1.94245)
(6.98617e-15 4.24264 3.12816)
(6.08344e-15 2.15786 2.08956)
(5.91686e-15 -2.23011 -1.91143)
(1.98787e-15 -3.99184 -3.30405)
(-3.78486e-15 -3.62601 1.56013)
(-3.3288e-15 -4.49823 1.70847)
(-2.78422e-15 -5.03499 1.66564)
(-2.06296e-15 -5.57522 1.63339)
(-1.18695e-15 -6.0849 1.4819)
(-4.54209e-16 -6.29562 1.21454)
(-9.92673e-17 -6.03227 0.84668)
(-1.10598e-16 -4.17664 0.149269)
(-6.37386e-17 0.298316 0.360533)
(-2.40911e-17 -1.58636 1.60086)
(3.24438e-16 -4.15975 2.33027)
(7.04696e-16 -5.70561 3.41942)
(8.85633e-16 -4.81099 3.88206)
(3.92679e-15 0.0200256 3.58038)
(7.46941e-15 3.18939 6.09456)
(6.97345e-15 4.40393 6.76474)
(5.88577e-15 3.52642 6.19733)
(3.69111e-15 -0.010172 1.97752)
(1.61548e-15 -1.46549 -0.676834)
(-3.75913e-15 -3.66012 1.58176)
(-3.27926e-15 -4.5169 1.73119)
(-2.72179e-15 -5.02164 1.68671)
(-1.98655e-15 -5.53826 1.65811)
(-1.1223e-15 -6.00406 1.51006)
(-4.25371e-16 -6.16308 1.24445)
(-1.14594e-16 -5.83262 0.875264)
(-1.09064e-16 -4.01431 0.162829)
(-3.54775e-17 -0.100094 0.403954)
(1.6519e-17 -1.95461 1.7859)
(3.49107e-16 -4.55878 2.67021)
(6.34654e-16 -6.06171 3.87195)
(1.20959e-15 -5.002 4.5451)
(5.16945e-15 -0.76115 5.86282)
(8.04507e-15 2.57816 8.60016)
(7.64558e-15 4.35609 9.49405)
(6.79699e-15 3.98947 10.634)
(4.77565e-15 -0.108382 8.70846)
(3.46256e-15 -5.38892 6.70486)
(-3.73137e-15 -3.69412 1.60497)
(-3.22716e-15 -4.53533 1.75336)
(-2.65589e-15 -5.00838 1.70595)
(-1.90853e-15 -5.5024 1.67936)
(-1.05906e-15 -5.92416 1.53341)
(-3.81749e-16 -6.03071 1.26994)
(-1.56215e-17 -5.63386 0.912976)
(-1.1031e-16 -3.84467 0.187898)
(-1.41098e-17 -0.534312 0.372817)
(5.65293e-17 -2.39245 1.95874)
(4.44444e-16 -5.00509 2.96185)
(7.86867e-16 -6.4973 4.21936)
(1.66149e-15 -5.52139 5.18763)
(5.95978e-15 -1.68861 7.26516)
(7.61791e-15 1.81479 9.42502)
(7.56532e-15 3.63097 10.4553)
(7.28421e-15 3.5655 12.7329)
(6.9527e-15 0.662317 14.0784)
(6.4338e-15 -3.17749 11.1456)
(-3.70131e-15 -3.7273 1.6297)
(-3.17245e-15 -4.55266 1.77365)
(-2.58744e-15 -4.9943 1.72071)
(-1.82861e-15 -5.46693 1.69278)
(-9.89379e-16 -5.84517 1.54656)
(-3.82232e-16 -5.9021 1.28672)
(-5.22615e-16 -5.43949 0.954826)
(-1.0513e-16 -3.67721 0.223237)
(1.12622e-17 -0.968525 0.444056)
(1.19562e-16 -2.9018 2.1458)
(3.55721e-16 -5.477 3.19275)
(1.72111e-16 -6.98743 4.45964)
(1.7849e-15 -6.15909 5.62546)
(3.85415e-15 -2.57598 7.92008)
(2.22077e-15 1.21085 10.026)
(3.99964e-15 3.10412 10.4198)
(5.53875e-15 2.81154 10.979)
(6.38553e-15 0.554469 11.4153)
(4.6799e-15 -1.27748 8.92636)
(-3.66827e-15 -3.75884 1.65731)
(-3.11527e-15 -4.56781 1.79107)
(-2.51843e-15 -4.97802 1.72737)
(-1.75145e-15 -5.43062 1.6919)
(-9.3111e-16 -5.76685 1.54164)
(-3.59367e-16 -5.78015 1.28804)
(-1.13141e-16 -5.25227 0.990907)
(-9.66605e-17 -3.53758 0.289283)
(4.04943e-17 -1.42253 0.741873)
(1.52362e-16 -3.42727 2.35812)
(2.21966e-16 -5.94631 3.35835)
(7.3627e-17 -7.50329 4.5963)
(1.65249e-15 -6.87894 5.89508)
(1.91858e-15 -3.52619 8.76031)
(-2.38058e-15 1.01777 11.2562)
(-3.50381e-15 3.36977 10.7146)
(8.19361e-16 3.35043 11.8482)
(6.87509e-15 1.48223 11.1933)
(8.63587e-15 0.213048 6.79565)
(-3.63143e-15 -3.78666 1.69033)
(-3.05622e-15 -4.57731 1.80426)
(-2.45246e-15 -4.95582 1.72154)
(-1.68386e-15 -5.39064 1.66877)
(-8.83642e-16 -5.68854 1.50836)
(-3.29242e-16 -5.66761 1.2641)
(-3.1233e-17 -5.08564 1.00982)
(-7.24538e-17 -3.48395 0.451199)
(7.33298e-17 -1.89165 1.24816)
(1.51393e-16 -3.90088 2.56372)
(1.45551e-16 -6.38538 3.44644)
(1.80544e-16 -8.02177 4.61494)
(1.31575e-15 -7.68724 5.9035)
(-2.41064e-16 -4.61159 8.52352)
(-6.42936e-15 0.506647 8.61687)
(-7.07502e-15 2.74592 6.78651)
(-6.14881e-15 2.35526 10.6043)
(-4.88455e-15 1.57156 13.715)
(-3.16463e-15 1.90095 11.117)
(-3.58977e-15 -3.80951 1.73291)
(-2.99485e-15 -4.57876 1.81261)
(-2.39209e-15 -4.92489 1.70026)
(-1.6315e-15 -5.34416 1.61678)
(-8.50164e-16 -5.60931 1.43623)
(-2.97882e-16 -5.56742 1.20193)
(-1.16763e-17 -4.96764 1.0012)
(-4.75544e-17 -3.55375 0.729635)
(8.91929e-17 -2.33749 1.78972)
(1.4169e-16 -4.27365 2.71106)
(1.46382e-16 -6.77902 3.45461)
(3.08766e-16 -8.51311 4.55247)
(8.19522e-16 -8.36667 5.74536)
(-1.46666e-15 -4.94115 7.7915)
(-5.75512e-15 1.44107 6.00042)
(-5.22897e-15 2.86375 2.48229)
(-4.21397e-15 0.544513 3.16296)
(-3.98449e-15 1.58094 6.9208)
(-3.08753e-15 5.21345 8.86733)
(-3.5386e-15 -3.82035 1.78891)
(-2.92466e-15 -4.56238 1.81842)
(-2.33365e-15 -4.87632 1.66593)
(-1.59438e-15 -5.28363 1.53539)
(-8.33833e-16 -5.52555 1.32045)
(-2.72812e-16 -5.48383 1.09029)
(7.82455e-18 -4.92841 0.946436)
(-5.61641e-17 -3.74735 1.00959)
(6.77957e-17 -2.73276 2.17132)
(1.40542e-16 -4.54634 2.75951)
(2.05169e-16 -7.13334 3.39792)
(3.97174e-16 -8.96316 4.44918)
(3.62991e-16 -8.8871 5.48011)
(-2.17781e-15 -4.83639 7.00157)
(-5.84958e-15 2.61952 5.12426)
(-5.72876e-15 3.97847 2.2333)
(-4.55527e-15 1.24824 1.1937)
(-5.27553e-15 -0.923175 -3.91431)
(-1.46466e-15 -1.30658 0.581019)
(-3.4615e-15 -3.82476 1.87623)
(-2.82898e-15 -4.53308 1.8297)
(-2.26678e-15 -4.81238 1.62231)
(-1.56821e-15 -5.20733 1.4254)
(-8.4119e-16 -5.43385 1.161)
(-2.75394e-16 -5.41068 0.922421)
(4.15936e-18 -4.95245 0.811219)
(-1.05895e-16 -4.00693 1.11694)
(2.45112e-17 -3.06044 2.26437)
(1.54108e-16 -4.74529 2.66563)
(2.82131e-16 -7.46034 3.31068)
(4.4847e-16 -9.36331 4.3418)
(4.38485e-17 -9.28957 5.16249)
(-2.45729e-15 -4.75112 6.12921)
(-5.62696e-15 3.28603 3.95545)
(-5.72138e-15 4.58383 1.55315)
(-4.55865e-15 2.37794 1.36865)
(-4.44484e-15 1.2405 -1.23258)
(-3.37423e-15 0.0832051 -3.43244)
(-3.33661e-15 -3.79451 2.01834)
(-2.69322e-15 -4.45739 1.85977)
(-2.18422e-15 -4.70824 1.58232)
(-1.55236e-15 -5.09656 1.30256)
(-8.87448e-16 -5.3233 0.98026)
(-3.44442e-16 -5.34015 0.720529)
(-6.73804e-17 -5.0205 0.588067)
(-1.85093e-16 -4.31998 0.952039)
(6.40763e-18 -3.38943 1.9906)
(1.98801e-16 -4.96059 2.37607)
(3.41775e-16 -7.8144 3.24847)
(4.62031e-16 -9.71985 4.26306)
(-1.34238e-16 -9.53137 4.88584)
(-2.42343e-15 -4.40892 5.32478)
(-5.23461e-15 4.23047 2.93797)
(-5.43303e-15 5.138 1.34394)
(-4.68073e-15 2.65879 0.931758)
(-4.13825e-15 1.58927 -0.827866)
(-4.05538e-15 0.77703 -2.18416)
(-3.17861e-15 -3.77025 2.24564)
(-2.54231e-15 -4.37616 1.88518)
(-2.10692e-15 -4.59446 1.52541)
(-1.56662e-15 -4.97588 1.15549)
(-9.95639e-16 -5.2068 0.768533)
(-5.15924e-16 -5.25421 0.463056)
(-2.5621e-16 -5.0407 0.231585)
(-3.01197e-16 -4.542 0.447127)
(5.43392e-17 -3.59689 1.20599)
(3.01075e-16 -5.21359 1.85395)
(3.69627e-16 -8.21027 3.27726)
(4.31724e-16 -10.0246 4.26883)
(-1.9557e-16 -9.69154 4.75757)
(-2.22705e-15 -3.98408 4.62422)
(-5.04762e-15 4.81609 1.90876)
(-5.18327e-15 5.52697 1.39061)
(-4.72295e-15 3.16933 0.600088)
(-4.16749e-15 2.17698 -0.809396)
(-3.62065e-15 1.0679 -1.54684)
(-2.98664e-15 -3.618 2.52537)
(-2.37273e-15 -4.14723 1.93548)
(-2.00875e-15 -4.39598 1.53187)
(-1.57246e-15 -4.77786 1.0759)
(-1.12011e-15 -5.03079 0.626895)
(-7.32607e-16 -5.11731 0.248707)
(-5.09385e-16 -5.02295 -0.137258)
(-4.0438e-16 -4.7729 -0.255814)
(2.02406e-16 -4.0592 -0.083584)
(4.4481e-16 -5.82378 1.3626)
(3.79911e-16 -8.81308 3.48977)
(3.95561e-16 -10.325 4.39146)
(-1.31969e-16 -9.62583 4.83726)
(-1.99937e-15 -3.20298 4.12724)
(-4.93223e-15 5.31207 1.1317)
(-5.1642e-15 5.76484 1.19614)
(-4.73426e-15 3.54814 0.376168)
(-4.11673e-15 2.45724 -0.698358)
(-3.39407e-15 1.40237 -1.21088)
(-2.96555e-15 -3.58167 2.46024)
(-2.32614e-15 -4.04823 1.57135)
(-2.10239e-15 -4.27942 1.30315)
(-1.72354e-15 -4.65788 0.832144)
(-1.32271e-15 -4.91569 0.294067)
(-9.45335e-16 -4.97859 -0.302411)
(-6.77286e-16 -4.8338 -1.03929)
(-3.75041e-16 -4.46507 -1.79087)
(4.7816e-16 -4.05035 -2.09075)
(5.63504e-16 -6.48711 1.15051)
(3.65615e-16 -9.37698 3.77166)
(3.35628e-16 -10.5366 4.65017)
(3.70834e-17 -9.68911 5.1637)
(-1.77168e-15 -2.59406 3.6927)
(-4.66421e-15 5.91385 0.913813)
(-5.20102e-15 5.93772 0.831876)
(-4.74832e-15 3.8671 0.298172)
(-4.08028e-15 2.74219 -0.645425)
(-3.2486e-15 1.59069 -1.06417)
(-1.48685e-15 -3.15065 2.56972)
(-1.34439e-15 -3.57493 1.17603)
(-1.52405e-15 -4.04003 0.965423)
(-1.2757e-15 -4.29633 0.414581)
(-8.95056e-16 -4.49437 -0.216137)
(-4.5955e-16 -4.51388 -0.926148)
(-1.26855e-16 -4.41197 -1.6253)
(2.528e-16 -4.52647 -2.07452)
(8.23931e-16 -5.57459 -0.83856)
(5.39433e-16 -8.38715 2.82529)
(4.04571e-16 -10.3105 4.62254)
(5.95023e-16 -10.9185 5.48077)
(5.25463e-16 -9.11868 5.7274)
(-1.81063e-15 -0.953901 3.16176)
(-4.47149e-15 6.40891 1.06992)
(-5.20742e-15 6.20416 0.54317)
(-4.75409e-15 4.21304 0.298386)
(-4.05141e-15 3.12439 -0.604193)
(-3.17245e-15 1.88463 -1.02922)
(9.74829e-17 10.3901 17.8275)
(-4.11171e-15 18.3008 30.9373)
(-3.57718e-15 18.2333 29.718)
(-3.63546e-15 16.2466 25.9921)
(-4.23471e-15 14.7285 22.998)
(-5.06255e-15 13.6148 20.8571)
(-4.1501e-15 12.4887 18.7933)
(-3.46852e-15 11.3432 16.9171)
(-2.68515e-15 10.1102 14.8827)
(-1.29992e-15 8.77604 12.7318)
(1.16582e-16 7.39433 10.5378)
(6.61428e-16 6.00998 8.34078)
(3.47737e-17 4.8337 6.48759)
(-1.27105e-15 4.21695 5.64806)
(-2.88477e-15 4.41991 6.25748)
(-4.98408e-15 5.52038 8.51657)
(-6.28821e-15 7.30557 11.766)
(-6.14068e-15 8.82474 14.9832)
(-5.18612e-15 9.68541 16.1158)
(-5.92794e-15 6.97917 12.6852)
(-2.51285e-16 9.81003 16.4658)
(-3.79269e-15 16.8563 29.6576)
(-2.6954e-15 15.6337 27.0222)
(-3.31749e-15 13.2679 23.0404)
(-3.88603e-15 11.6781 20.2064)
(-5.4426e-15 10.5601 18.239)
(-4.38089e-15 9.69041 16.7285)
(-4.2046e-15 8.91277 15.2571)
(-4.07019e-15 8.17107 13.8393)
(-4.17361e-15 7.50104 12.4329)
(-4.65417e-15 6.88536 11.0525)
(-5.02075e-15 6.33011 9.68549)
(-5.53075e-15 5.84598 8.36443)
(-6.72036e-15 5.57889 7.41139)
(-7.48183e-15 5.74956 7.29983)
(-8.35519e-15 6.42071 8.37824)
(-8.71616e-15 7.49743 10.3882)
(-8.10244e-15 8.38466 12.6449)
(-6.58714e-15 8.64803 13.699)
(-7.61036e-15 6.49598 11.0495)
(-6.16213e-17 8.79341 15.165)
(-9.27022e-16 17.3435 30.5176)
(-6.17547e-16 17.1342 29.7264)
(-7.95244e-16 15.1422 25.8249)
(-7.74727e-16 13.4769 22.7278)
(-2.60056e-15 12.4271 20.5136)
(-2.09866e-15 11.6217 18.8875)
(-1.85617e-15 10.9874 17.4716)
(-2.18166e-15 10.3848 16.1452)
(-2.77287e-15 9.80277 14.8385)
(-2.8756e-15 9.22031 13.5235)
(-2.90503e-15 8.61888 12.1709)
(-3.0907e-15 8.00098 10.775)
(-3.40424e-15 7.39483 9.41267)
(-3.93136e-15 6.88084 8.27244)
(-4.83305e-15 6.55581 7.66439)
(-5.52892e-15 6.47349 7.79561)
(-5.70833e-15 6.50988 8.45766)
(-5.13799e-15 6.091 8.82042)
(-6.41982e-15 4.0777 6.04249)
(3.71935e-17 8.12507 13.7511)
(3.3371e-16 17.8816 30.7972)
(2.31358e-16 17.8805 30.7624)
(2.63759e-16 15.6249 26.455)
(3.83562e-16 13.7703 23.2853)
(-1.2327e-15 12.7299 21.1465)
(-1.288e-15 11.8869 19.5568)
(-1.47036e-15 11.1658 18.07)
(-1.44756e-15 10.4415 16.6457)
(-1.6331e-15 9.73762 15.2652)
(-1.80694e-15 9.05003 13.9371)
(-1.99989e-15 8.37823 12.6529)
(-2.45715e-15 7.7108 11.3877)
(-2.83632e-15 7.03792 10.1072)
(-3.32635e-15 6.34159 8.81633)
(-3.85521e-15 5.67093 7.57524)
(-4.24451e-15 4.98873 6.54561)
(-4.61387e-15 4.39152 5.66979)
(-4.82349e-15 3.27714 4.68822)
(-8.85646e-15 1.21884 0.775536)
(-7.99089e-18 9.09766 15.2837)
(-9.09054e-17 18.74 31.4022)
(-6.50172e-17 18.5288 31.4008)
(-6.94425e-17 16.3193 27.1161)
(-1.17707e-16 14.5251 24.162)
(3.12377e-16 13.5752 22.1254)
(4.17397e-16 12.7302 20.5512)
(3.97667e-16 11.984 19.0077)
(4.26331e-16 11.2139 17.4924)
(5.00285e-16 10.4428 15.9824)
(5.15206e-16 9.65871 14.4891)
(5.70682e-16 8.8588 13.0161)
(6.57409e-16 8.03717 11.5702)
(7.06002e-16 7.20149 10.1466)
(7.18199e-16 6.32404 8.7392)
(7.70192e-16 5.42525 7.29423)
(7.98706e-16 4.3873 5.8077)
(8.99228e-16 3.3142 4.09684)
(1.21198e-15 1.53479 2.00285)
(3.94142e-16 -0.0840005 -1.6857)
(8.32241e-19 11.4757 19.3416)
(1.79975e-17 20.1334 32.8866)
(1.48992e-17 18.8499 31.5358)
(1.42419e-17 16.8787 27.4569)
(2.55366e-17 15.2662 24.9678)
(-6.35811e-17 14.4957 23.0753)
(-9.77628e-17 13.6828 21.5447)
(-9.30506e-17 12.9882 19.9721)
(-9.40641e-17 12.2285 18.3939)
(-1.06386e-16 11.4312 16.7442)
(-1.10567e-16 10.558 15.0326)
(-1.10547e-16 9.60931 13.2634)
(-1.09894e-16 8.58437 11.4595)
(-9.79951e-17 7.4977 9.63497)
(-7.06405e-17 6.32757 7.8091)
(-3.03063e-17 5.10152 5.94116)
(2.36021e-17 3.71177 4.03072)
(7.90727e-17 2.20703 1.72557)
(7.6891e-17 -0.133929 -0.956795)
(1.21231e-15 -1.40467 -4.6613)
(-3.15017e-20 14.8245 25.7141)
(-3.01122e-18 21.2069 34.3508)
(-2.91725e-18 18.2825 31.1464)
(-2.62646e-18 17.0497 27.8543)
(-4.09857e-18 15.7126 26.2018)
(1.1561e-17 15.2428 24.5612)
(1.89651e-17 14.4542 23.2116)
(1.82445e-17 13.8848 21.6783)
(1.71643e-17 13.0965 20.0474)
(1.7554e-17 12.2088 18.1568)
(1.69506e-17 11.1298 16.098)
(1.46608e-17 9.93799 13.9167)
(1.08764e-17 8.63702 11.6714)
(4.00449e-18 7.2428 9.36633)
(-7.89318e-18 5.73156 7.02301)
(-2.66567e-17 4.10892 4.5968)
(-5.41009e-17 2.33704 2.2698)
(-7.2921e-17 0.517689 -0.496783)
(-8.11898e-17 -2.09027 -3.36363)
(5.86038e-16 -2.76991 -7.20182)
(-4.04301e-21 17.1333 30.7781)
(4.9423e-19 20.2388 33.3333)
(5.16837e-19 16.7511 30.0496)
(4.53558e-19 16.4483 28.0015)
(5.44777e-19 15.0891 26.9445)
(-2.46416e-18 14.7407 25.519)
(-3.69682e-18 13.8018 24.4657)
(-3.39189e-18 13.1876 22.9942)
(-3.00033e-18 12.0186 21.1977)
(-2.78479e-18 10.6839 18.8246)
(-2.32635e-18 9.02999 16.2302)
(-1.45904e-18 7.33854 13.5138)
(1.75939e-20 5.54195 10.7274)
(3.14644e-18 3.65244 7.76976)
(9.27744e-18 1.71184 4.63659)
(1.28673e-17 -0.556621 1.13255)
(-1.53792e-17 -2.517 -1.81649)
(-6.63518e-17 -2.40045 -2.80035)
(-3.71985e-17 -5.05878 -5.81186)
(1.36652e-16 -4.00818 -8.02738)
(-5.57674e-23 16.8844 30.9665)
(-7.91783e-20 17.9654 30.5228)
(-7.90991e-20 15.4268 28.5045)
(-6.31415e-20 15.0035 26.7577)
(5.27084e-20 13.5791 25.6963)
(5.52525e-19 12.9804 24.3994)
(6.35033e-19 11.8832 23.3928)
(4.60039e-19 10.9104 21.8529)
(2.40296e-19 9.31888 19.7619)
(8.41709e-20 7.54226 17.0566)
(1.30806e-19 5.5889 14.2622)
(4.44688e-19 3.7263 11.5075)
(8.56805e-19 1.83488 8.76392)
(5.64272e-19 -0.0184578 5.98851)
(-2.2908e-18 -1.67373 3.43806)
(-1.07911e-17 -2.95848 1.28366)
(-2.69554e-17 -3.98509 -0.833806)
(-4.29791e-17 -4.35674 -2.47981)
(-3.89841e-17 -3.01982 -1.66698)
(-8.12717e-18 -0.188555 1.41101)
(5.30934e-22 15.1742 27.736)
(9.74916e-21 17.044 29.2065)
(7.57849e-21 14.4397 26.6104)
(3.65265e-22 13.6894 24.3676)
(-2.81426e-20 12.1422 23.1933)
(-7.76271e-20 11.3778 21.676)
(-5.05848e-20 10.0866 20.5091)
(-2.11805e-20 8.94245 18.8938)
(-2.76178e-20 7.31347 16.8745)
(3.83264e-20 5.58805 14.3495)
(4.80888e-19 3.78997 11.7305)
(1.58732e-18 2.13566 9.18275)
(2.49046e-18 0.644557 6.84336)
(-8.13575e-19 -0.514796 4.88767)
(-1.34941e-17 -1.12733 3.63601)
(-3.23334e-17 -0.804523 3.71354)
(-4.20501e-17 0.932876 5.88518)
(-3.12803e-17 4.05804 9.84129)
(-8.72375e-18 7.10315 13.2615)
(4.4372e-18 5.87804 11.6133)
(-1.08954e-22 14.4421 26.1522)
(-5.65815e-22 17.505 29.1259)
(2.38525e-22 14.5361 26.0958)
(1.12483e-21 14.0244 23.1897)
(3.06905e-21 12.3653 21.8866)
(6.00481e-21 11.8298 19.8968)
(-9.26425e-22 10.5414 18.4439)
(-1.13891e-20 9.70925 16.7106)
(-3.01394e-20 8.58604 15.0775)
(-3.36567e-20 7.59319 13.2418)
(8.29305e-20 6.57974 11.3861)
(3.80061e-19 5.75109 9.61706)
(6.08381e-19 5.15327 8.15502)
(4.37147e-19 4.84831 7.15208)
(-1.35672e-20 4.92492 6.83719)
(1.0697e-19 5.48648 7.45475)
(2.19186e-18 6.46553 8.84165)
(6.06057e-18 7.25933 10.5526)
(8.59328e-18 7.53523 11.2256)
(4.21662e-18 5.37625 9.17356)
(1.90217e-23 14.6488 26.575)
(-1.25389e-22 18.3499 30.0357)
(-3.27638e-22 15.1578 27.0508)
(-3.4518e-22 14.7951 23.9987)
(1.88713e-22 13.2096 22.6806)
(1.08227e-21 12.7823 20.7461)
(2.11948e-21 11.7152 19.2625)
(2.9513e-21 11.0174 17.5971)
(5.9394e-21 10.2186 16.1056)
(8.22039e-21 9.55046 14.6812)
(-1.03081e-20 8.93705 13.3364)
(-6.73552e-20 8.37477 12.0275)
(-1.2189e-19 7.84328 10.729)
(-4.86926e-20 7.30806 9.43596)
(2.89329e-19 6.76106 8.18686)
(9.14299e-19 6.21079 7.13176)
(1.63162e-18 5.69406 6.44769)
(2.03974e-18 5.17843 6.09596)
(1.53418e-18 4.21118 5.52504)
(-4.66111e-19 2.34782 2.93589)
(-2.56664e-24 15.3083 27.9666)
(4.89343e-23 19.0695 30.6901)
(8.49547e-23 15.493 27.8149)
(7.41143e-23 15.4967 24.868)
(-1.13027e-22 13.8048 23.6246)
(-4.16465e-22 13.482 21.6706)
(-5.52956e-22 12.4291 20.233)
(-5.76554e-22 11.7829 18.594)
(-8.48951e-22 11.0049 17.0944)
(-3.50882e-22 10.2962 15.5881)
(4.45651e-21 9.58744 14.1189)
(1.37374e-20 8.87942 12.6742)
(1.37428e-20 8.15447 11.2451)
(-2.39621e-20 7.39724 9.81692)
(-1.21276e-19 6.56801 8.37171)
(-2.67149e-19 5.66608 6.86588)
(-4.26279e-19 4.58704 5.30135)
(-6.13037e-19 3.42049 3.57042)
(-9.79342e-19 1.62189 1.58638)
(-1.55921e-18 0.145391 -1.6549)
(-3.85506e-25 16.1696 30.1831)
(-9.67224e-24 19.4968 30.8329)
(-7.10373e-24 15.6086 28.6238)
(1.80793e-23 16.2155 25.8392)
(7.64397e-23 14.2208 24.7765)
(9.71649e-23 14.1421 22.7467)
(-3.3525e-23 12.9557 21.4193)
(-2.43858e-22 12.443 19.7876)
(-3.79747e-22 11.6655 18.3822)
(-6.70298e-22 11.0352 16.9093)
(-1.75184e-21 10.3407 15.4217)
(-3.10407e-21 9.58695 13.8116)
(-1.37119e-21 8.68876 12.0342)
(8.14347e-21 7.61509 10.0613)
(2.60249e-20 6.34006 7.94231)
(4.43633e-20 4.9471 5.70699)
(5.12367e-20 3.32988 3.41263)
(3.25055e-20 1.70805 0.849941)
(5.37349e-21 -0.779915 -1.80867)
(-1.19805e-18 -1.81291 -5.43676)
(1.36472e-25 16.7412 32.1119)
(-2.42932e-25 19.3928 30.3699)
(3.81274e-24 15.5111 29.2255)
(1.50672e-23 16.5549 26.5715)
(2.2663e-24 14.2474 25.6863)
(-8.60947e-23 14.3774 23.6686)
(-2.5637e-22 13.0299 22.518)
(-4.15168e-22 12.65 20.9751)
(-4.13722e-22 11.8254 19.7416)
(-1.91633e-22 11.2521 18.3672)
(1.8099e-22 10.4928 16.9117)
(5.59268e-22 9.57449 15.1011)
(6.8779e-22 8.30376 12.82)
(7.53204e-22 6.70952 10.0965)
(3.4443e-21 4.93427 7.22988)
(1.2035e-20 3.17225 4.36797)
(2.21262e-20 1.23629 1.51826)
(2.90338e-20 -0.450397 -1.81144)
(1.3288e-19 -3.05768 -4.35023)
(-6.71809e-19 -3.36234 -8.15218)
(-3.6866e-25 16.4952 32.4111)
(2.88312e-25 18.8048 29.4549)
(7.99268e-24 15.075 28.9872)
(2.04912e-23 16.0763 26.4056)
(-6.84598e-24 13.7364 25.5493)
(-1.41876e-22 13.7281 23.6525)
(-3.5868e-22 12.3581 22.5518)
(-4.82471e-22 11.8766 21.1274)
(-4.06749e-22 10.9676 19.9788)
(-3.67693e-22 10.2785 18.6526)
(-6.36591e-22 9.30111 17.1089)
(-9.52129e-22 8.05016 14.9565)
(-6.46723e-22 6.34271 12.1011)
(3.35391e-21 4.45103 8.88447)
(2.16142e-20 2.76761 5.9658)
(5.69677e-20 1.25081 3.3567)
(7.82552e-20 -0.19642 0.844772)
(8.12171e-20 -1.80482 -2.25559)
(5.83049e-20 -4.62655 -5.95479)
(-2.13421e-19 -3.76102 -7.388)
(-1.60706e-25 15.526 31.2982)
(-1.28035e-25 18.3056 28.4412)
(5.88392e-24 14.2589 27.9883)
(1.12916e-23 15.2062 25.4416)
(-2.68402e-23 12.9832 24.5288)
(-1.53838e-22 12.7174 22.7535)
(-3.23112e-22 11.482 21.5746)
(-3.99037e-22 10.8066 20.2192)
(-3.64261e-22 9.91952 19.0305)
(-4.64252e-22 9.11383 17.7411)
(-9.7748e-22 8.13705 16.2425)
(-2.16884e-21 6.96174 14.3043)
(-4.15723e-21 5.5928 11.9332)
(-2.95644e-21 4.25302 9.43495)
(1.5602e-20 3.02314 7.0107)
(6.44547e-20 1.55712 4.18005)
(1.1747e-19 -0.364366 0.623765)
(1.17975e-19 -2.08474 -2.43683)
(7.98603e-20 -3.02685 -3.62656)
(-3.02744e-22 -1.33983 -1.21475)
(-1.37525e-25 14.1588 30.5712)
(5.85292e-25 17.9578 27.3643)
(5.29725e-24 13.2276 27.2555)
(7.1725e-24 14.173 24.855)
(-2.70086e-23 12.0556 23.9089)
(-1.28206e-22 11.59 22.2914)
(-2.60267e-22 10.4526 21.0791)
(-3.30883e-22 9.70621 19.7686)
(-3.27437e-22 8.86939 18.5726)
(-4.32265e-22 8.1224 17.3589)
(-9.80083e-22 7.35388 16.1031)
(-2.43214e-21 6.57833 14.714)
(-5.12818e-21 5.77419 13.131)
(-7.60797e-21 4.91048 11.2618)
(-3.33271e-21 3.87375 8.96016)
(2.01529e-20 2.52687 6.04186)
(7.07298e-20 0.868782 2.35245)
(1.28057e-19 -0.919616 -1.7334)
(1.31463e-19 -1.86713 -3.69826)
(1.21033e-19 0.263178 0.653882)
(-3.71317e-26 11.1743 28.5562)
(2.53214e-25 17.0144 24.8726)
(2.29835e-24 11.9606 25.2677)
(3.2441e-24 12.6465 23.5214)
(-1.34349e-23 10.902 22.7585)
(-6.84441e-23 10.2489 21.6435)
(-1.48017e-22 9.258 20.7078)
(-1.84893e-22 8.4917 19.7429)
(-1.26796e-22 7.73264 18.8308)
(-5.57115e-23 7.06504 17.9459)
(-1.7347e-22 6.45423 17.0923)
(-6.14376e-22 5.89588 16.2269)
(-1.39501e-21 5.35321 15.2803)
(-2.54203e-21 4.79583 14.1683)
(-3.5205e-21 4.19776 12.7974)
(-1.67652e-21 3.50115 11.0396)
(7.70166e-21 2.6407 8.7074)
(2.64339e-20 1.66193 5.55466)
(4.62926e-20 0.531515 1.58203)
(4.52598e-20 -0.625093 -1.92202)
(7.30862e-27 2.6117 17.092)
(2.33766e-25 8.05051 13.6786)
(6.81362e-25 5.17439 14.5317)
(3.02308e-25 4.99156 14.1359)
(-4.20961e-24 4.07661 14.0926)
(-1.66471e-23 3.52191 13.916)
(-3.28949e-23 2.95955 13.7573)
(-2.89167e-23 2.50464 13.568)
(4.10214e-23 2.11248 13.36)
(2.21238e-22 1.79121 13.1245)
(5.14664e-22 1.5334 12.8599)
(8.62919e-22 1.34161 12.5688)
(1.16791e-21 1.22032 12.2583)
(1.30454e-21 1.18424 11.9293)
(1.07727e-21 1.25198 11.5703)
(2.61888e-22 1.39041 11.1852)
(-1.0497e-21 1.6196 10.7167)
(-2.06774e-21 2.21071 9.84619)
(-1.75176e-21 2.35372 8.49514)
(-2.66933e-22 -0.261312 6.31451)
(-1.01009e-26 -2.61174 17.0921)
(-2.92625e-25 -8.05052 13.6787)
(-8.29544e-25 -5.1744 14.5318)
(-2.66377e-25 -4.99154 14.1361)
(5.51176e-24 -4.07659 14.0928)
(2.08772e-23 -3.52188 13.9162)
(3.96399e-23 -2.9595 13.7575)
(3.01166e-23 -2.50458 13.5682)
(-6.61768e-23 -2.1124 13.3602)
(-3.03956e-22 -1.79109 13.1246)
(-6.82857e-22 -1.53325 12.8601)
(-1.124e-21 -1.34144 12.5689)
(-1.50359e-21 -1.22015 12.2585)
(-1.67841e-21 -1.18405 11.9294)
(-1.43424e-21 -1.25175 11.5704)
(-5.19618e-22 -1.3901 11.1852)
(9.6745e-22 -1.61918 10.7168)
(2.14094e-21 -2.20995 9.84639)
(1.84006e-21 -2.35232 8.4954)
(2.71165e-22 0.261425 6.31316)
(4.78522e-26 -11.1743 28.5564)
(-3.39373e-25 -17.0146 24.8728)
(-2.93271e-24 -11.9608 25.2679)
(-3.85813e-24 -12.6468 23.5216)
(1.76908e-23 -10.9023 22.7586)
(8.61895e-23 -10.2492 21.6436)
(1.80507e-22 -9.25841 20.7078)
(2.12293e-22 -8.49218 19.7429)
(1.18038e-22 -7.73323 18.8308)
(1.36037e-23 -7.06576 17.946)
(1.6861e-22 -6.45505 17.0923)
(7.48118e-22 -5.89674 16.2268)
(1.7363e-21 -5.35407 15.28)
(3.14215e-21 -4.79682 14.1682)
(4.41304e-21 -4.19911 12.7979)
(2.63583e-21 -3.50309 11.0412)
(-7.40949e-21 -2.64323 8.71066)
(-2.75083e-20 -1.66496 5.55908)
(-4.81214e-20 -0.533773 1.58354)
(-4.65277e-20 0.629532 -1.93109)
(1.71546e-25 -14.1585 30.5709)
(-8.54014e-25 -17.9578 27.3637)
(-6.82462e-24 -13.2275 27.255)
(-8.58905e-24 -14.173 24.8543)
(3.54157e-23 -12.0556 23.9081)
(1.61045e-22 -11.59 22.2905)
(3.18024e-22 -10.4526 21.0781)
(3.91441e-22 -9.70626 19.7675)
(3.8092e-22 -8.86946 18.5715)
(5.36471e-22 -8.12251 17.3577)
(1.27027e-21 -7.3541 16.102)
(3.10356e-21 -6.57884 14.713)
(6.43451e-21 -5.77511 13.1305)
(9.66201e-21 -4.91175 11.2618)
(5.38437e-21 -3.87548 8.9611)
(-2.04969e-20 -2.52989 6.04488)
(-7.61973e-20 -0.874205 2.35868)
(-1.36366e-19 0.913102 -1.7267)
(-1.3213e-19 1.86373 -3.69675)