/*--------------------------------*- C++ -*----------------------------------*\
| =========                 |                                                 |
| \\      /  F ield         | OpenFOAM: The Open Source CFD Toolbox           |
|  \\    /   O peration     | Version:  4.1                                   |
|   \\  /    A nd           | Web:      www.OpenFOAM.org                      |
|    \\/     M anipulation  |                                                 |
\*---------------------------------------------------------------------------*/
FoamFile
{
    version     2.0;
    format      ascii;
    class       volScalarField;
    location    "8";
    object      p;
}
// * * * * * * * * * * * * * * * * * * * * * * * * * * * * * * * * * * * * * //

dimensions      [0 2 -2 0 0 0 0];

internalField   nonuniform List<scalar> 
1280
(
-10.0696
-1.83343
-12.1488
-29.7987
-13.839
-31.7137
-54.9345
-61.2994
-57.5049
-77.0869
-129.509
-104.02
-141.096
-235.081
-200.236
-292.879
-441.783
-526.869
-344.216
-1540.77
-315.445
980.101
1772.27
2325.26
2351.21
3132.33
-1197.44
426.166
486.973
355.426
283.313
212.015
135.624
54.2047
-20.8607
-114.021
-180.081
-328.565
-372.834
-798.524
-3066.28
-1644.43
-1014.13
-739.101
534.123
51.2194
192.051
221.375
-283.227
243.034
229.578
-312.558
211.361
173.114
17.385
501.375
-726.511
-975.474
-1667.11
-3307.68
31.2491
385.543
398.596
469.97
448.464
427.724
357.363
273.081
181.38
123.008
96.0497
63.4852
126.275
-1727.8
2161.6
1415.34
1413.18
1128.7
945.027
114.453
-1080.57
-55.282
-310.761
-246.681
-147.29
-79.1111
-130.023
-44.5168
-19.8592
-62.5718
-14.1241
-2.98437
-18.8047
-20.345
-0.0442626
17.7382
-14.3281
2.21275
12.0395
-8.41875
-32.8759
-51.6355
-36.899
-144.215
-129.388
-55.8184
21.3024
98.8866
121.935
-6.55888
0.819831
-123.029
-189.565
-180.239
-3.36705
7.04791
20.0041
6.06754
26.5357
-21.8292
3.6033
-12.0675
-166.282
-120.43
-18.0004
100.193
227.177
267.887
121.621
102.448
-260.609
-300.794
-354.669
-73.1368
-11.8506
58.3687
27.5827
48.9099
-43.4744
-65.4293
-120.688
-241.358
-169.562
-29.665
118.089
285.174
294.33
189.951
114.728
-324.143
-352.37
-451.796
-83.9696
-9.9758
80.7207
22.258
58.7209
-61.6327
-75.5824
-216.692
-319.457
-238.877
-44.9645
151.847
376.486
352.803
268.233
126.98
-287.445
-417.644
-509.201
-107.227
3.26696
119.232
58.0652
134.706
-85.0496
-89.4494
-318.697
-360.894
-307.048
-61.6045
182.365
438.667
424.4
329.828
192.654
-256.623
-515.729
-529.225
-153.214
23.2539
150.485
17.1105
91.8256
-111.918
-60.9584
-359.139
-374.303
-376.784
-92.2084
206.458
496.957
503.748
314.277
594.638
44.7108
-493.158
-543.923
-225.811
61.6537
214.656
152.438
298.578
-135.355
-18.7816
-345.782
-381.513
-420.87
-131.435
209.866
528.464
514.418
249.401
642.566
338.34
-444.521
-579.163
-285.616
72.577
248
-73.6065
1.73969
-152.471
28.4091
-295.774
-378.404
-431.267
-178.187
208.767
578.086
569.72
388.44
412.414
183.365
-337.001
-560.112
-314.677
166.445
400.065
728.943
769.088
-159.223
64.9101
-233.462
-328.959
-398.808
-218.215
145.436
475.712
471.859
359.933
416.95
236.114
-155.399
-341.42
-221.372
187.904
470.736
1497.21
3980.02
-159.407
90.548
-178.665
-262.227
-344.778
-220.853
90.7175
378.348
371.024
253.429
272.981
203.253
17.8892
-84.1858
-49.0522
233.606
649.852
2151.09
2498.55
-158.243
108.579
-139.713
-216.465
-312.677
-221.357
50.7544
290.867
274.996
200.64
250.766
236.662
202.547
152.718
93.7007
235.106
638.931
2190.05
2553.54
-152.69
121.124
-113.888
-199.969
-312.683
-246.735
-4.89814
206.363
236.491
228.822
277.362
318.249
329.1
324.849
274.785
247.183
299.693
1370.93
3882.18
-137.883
122.468
-98.3544
-218.347
-349.787
-297.144
-43.4414
206.681
250.442
238.728
286.378
366.933
357.469
329.631
237.745
66.2579
70.7657
519.845
814.09
-107.992
108.7
-97.5726
-273.535
-389.203
-323.129
-67.9681
158.887
214.03
228.79
274.64
352.591
335.709
301.162
147.689
-63.2008
-57.652
-327.462
-133.496
-73.8141
77.7417
-105.561
-338.328
-378.594
-360.375
-87.3827
117.346
187.537
216.329
265.383
310.8
282.048
213.006
95.9759
-38.3067
-35.5666
-29.7314
247.355
-34.9131
34.0123
-126.428
-397.881
-345.822
-372.234
-85.0627
77.9996
155.941
193.566
241.108
267.282
259.718
183.304
83.987
-28.5457
-32.7299
-96.3767
25.8539
-12.6233
-4.3433
-115.887
-378.241
-327.876
-334.375
-86.7809
45.2087
125.408
164.225
202.982
228.299
228.85
161.54
79.5898
11.7779
5.4398
-29.0622
61.2141
9.09
-45.5099
-119.46
-322.179
-319.657
-274.539
-78.1138
27.418
99.2556
133.207
163.134
183.363
186.777
139.913
71.5215
40.6367
11.3953
-28.8517
11.466
8.35923
-34.1989
-15.6985
-121.502
-250.932
-215.151
-73.4058
18.3327
85.0686
113.465
134.337
151.483
153.19
117.592
64.0321
42.6628
11.1203
-10.8606
10.2418
-13.2451
-67.7073
-91.6738
-92.0939
-194.239
-201.499
-123.107
-56.7776
-1.90676
23.2552
34.3737
45.3961
54.4449
46.4038
22.9679
2.9904
-9.50174
-14.9371
6.8954
9392
9491.11
9452.49
9403.08
9271.56
9129.05
8946.09
8749.51
8537.59
8345.68
8166.02
8001.13
7851.36
7717.62
7596.48
7492.08
7397.62
7319.56
7254.12
7183.17
5149.78
5282.66
5318.63
5378.51
5415.33
5451.23
5484.51
5512.62
5543.82
5570.2
5599.75
5628.75
5659.69
5693.82
5727.33
5768.92
5803.16
5855.76
5883.52
5950.19
5895.45
5888.3
5867.28
5853.51
5833.52
5819.63
5806.9
5792.92
5784.17
5771.71
5766.69
5759.99
5759.25
5761.03
5764.89
5776.22
5783.56
5806.03
5814.03
5850.85
5096.39
5108.79
5106.74
5118.34
5117.14
5124.68
5127.57
5130.14
5135.64
5135.13
5141.06
5141.39
5146.53
5150.11
5154.43
5162.49
5166.3
5181.29
5184.39
5216.64
5357.94
5345.1
5337.12
5340.53
5329.77
5329.31
5321.85
5315.41
5311.55
5301.59
5297.7
5287.39
5281.14
5271.78
5262.71
5254.34
5243.43
5236.55
5227.37
5229.69
5155.05
5173.66
5180.21
5208.25
5216.39
5234.8
5247.1
5257.39
5272
5278.08
5289.78
5294.5
5301.63
5305.36
5308.55
5310.79
5311.28
5311.43
5310.64
5306.33
4852.9
4915.47
4936.96
4989.09
5019.23
5057.43
5095.98
5125.41
5163.1
5189.16
5219.56
5242.82
5265.57
5284.44
5300.58
5314.09
5324.42
5332.12
5337.03
5337.86
4041.35
4181.08
4236.91
4317.53
4389.05
4458.54
4545.77
4612.06
4693.8
4762.19
4834.07
4899.97
4962.81
5021.24
5073.83
5121.41
5160.77
5194.95
5216.21
5235.76
2542.61
2749.97
2863.36
2949.1
3082.59
3174.45
3322.2
3426.15
3559.67
3677.84
3802.73
3925.45
4047.9
4170.98
4291.52
4412.67
4524.56
4635.69
4717.31
4819.75
109.961
216.503
352.11
368.485
523.58
553.797
698.791
760.994
876.37
961.893
1063.01
1160.87
1263.92
1374.11
1490.48
1628.25
1772.52
1975.2
2171.17
2451.48
-1063.03
-1329.08
-1310.01
-1520.29
-1542.98
-1743.99
-1805.58
-1974.13
-2060.06
-2173.71
-2220.48
-2238.21
-2206.75
-2143.88
-2054.68
-1941.6
-1828.03
-1679.15
-1560.11
-1263.4
2308.14
1842.7
1757.28
1369.31
1199.55
828.596
584.593
214.124
-94.0579
-458.974
-765.747
-1055.77
-1276.21
-1441.11
-1526.79
-1548.75
-1515.45
-1439.72
-1441.22
-1465.37
6631.3
6403.32
6434.17
6215.63
6256.4
6071.44
6076.27
5936.54
5898.31
5787.92
5710.75
5590.84
5455.73
5272.23
5058.11
4823.05
4600.68
4504.35
4490.41
4137.67
6692.95
6722.13
6846.47
6765.63
6944.55
6863.44
6999.29
6954.34
7010.39
6969.32
6947.38
6884.34
6821.81
6751.7
6691.01
6649.24
6625.16
6572.46
6562.1
6461.82
5307.86
5397.19
5636.32
5585.81
5890.03
5870.41
6113.82
6176.42
6348.36
6451.97
6570.68
6649.18
6699.51
6709.34
6697.06
6698.97
6753.26
6862.65
6948.96
7029.5
3105.9
3051.37
3313.9
3143.73
3463.04
3372.77
3603.23
3650.92
3817.05
3945.73
4105.39
4270.74
4445.7
4630.16
4816.7
5013.79
5204.07
5424.84
5571.91
5805.25
2982.39
2703.04
2842.09
2373.95
2462.09
2102.25
2041.42
1812.79
1691.9
1540.15
1428.1
1327.76
1250.72
1200.77
1178.96
1218.1
1304
1487.59
1649.65
1891.49
4312.86
3813.9
4339
3707.63
3840.76
3446.83
3295.36
2983.5
2724.47
2421.23
2125.9
1816.89
1506.41
1197.08
906.882
681.538
532.276
556.913
573.471
662.564
4242.34
2541.38
3291.51
2319.49
2243.07
1703.35
1394.71
1011.59
709.044
433.31
219.633
64.5181
-21.1837
-32.7575
40.1214
198.481
453.87
809.153
1047.87
1226.59
56992.4
50484.5
47028.5
42693.9
39077.7
35499.5
32206.6
29076.6
26135.2
23351.7
20717.6
18217.2
15836.9
13564.6
11417.1
9374.42
7371.77
5746.51
4126.81
1180.71
59096.6
52588.6
49132.4
44797.7
41181.4
37603.1
34310.3
31180.3
28239.1
25455.8
22822.1
20322.2
17942.5
15670.7
13523.3
11480.4
9477.61
7852.72
6233.46
3287.42
6349.03
4647.71
5397.5
4425.22
4348.44
3808.49
3499.6
3116.3
2813.61
2537.8
2324.11
2169.07
2083.51
2072.07
2145
2303.32
2557.97
2913.94
3152.19
3330.89
6410.56
5914.34
6440.64
5811.11
5946
5554.12
5404.74
5095.29
4838.75
4538.3
4245.89
3940.09
3632.96
3326.82
3038.91
2814.68
2664.84
2689.77
2707.53
2796.25
5145.07
4864.39
5001.57
4533.25
4620.28
4260.16
4199
3970.22
3849.33
3697.61
3585.64
3485.38
3408.35
3358.07
3335.09
3371.77
3454.1
3632.29
3791.14
4028.05
5137.14
5082.8
5343.04
5171.78
5489.65
5398.04
5628.16
5674.77
5841.21
5969.49
6129.53
6295.01
6470.32
6655.14
6842.04
7039.21
7228.96
7447.72
7592.29
7823.62
7409.85
7492.98
7723.11
7670.62
7966.45
7944.68
8184.61
8246.74
8419.39
8525.67
8648.47
8732.9
8791.18
8811.34
8810.6
8822.85
8880.24
8985.98
9067.22
9149.86
8521.59
8521.59
8639.83
8507.38
8699.24
8604.01
8767.8
8741.84
8838.77
8834.66
8853.43
8831.37
8810.26
8776.16
8747.44
8730.96
8727.06
8697.66
8702.95
8636.58
8490.73
8167.64
8282.17
8016.95
8094.34
7992.41
8052.49
8031.21
8054.05
8017.62
8021.44
7989.73
7929.3
7818.24
7674.02
7504.63
7347.03
7281.97
7292.67
7053.32
5804.18
5501.21
5511.96
5383.18
5354.47
5270.78
5173.9
5023.23
4813.75
4535.75
4209.48
3881.84
3619.64
3434.21
3329.16
3296.23
3328.84
3379.91
3384.05
3351.94
3517.3
3464.58
3470.66
3428.07
3376.93
3301.99
3205.52
3088.59
2953.84
2822.36
2704.34
2635.73
2633.92
2674.72
2736.21
2812.91
2887.04
2978.01
3042.07
3240
4295.59
4461.37
4514.61
4562.63
4584.33
4608.59
4638.24
4685.72
4749.33
4836.77
4939.39
5040.62
5135.79
5225.94
5307.58
5397.19
5481.08
5604.77
5725.71
5925.24
5776.85
5940.31
5994.58
6072.88
6135.49
6209.15
6289.73
6381.55
6470.57
6564.39
6672.7
6780.02
6883.87
6986.33
7082.52
7179.81
7264.37
7352.46
7410.05
7481.67
6753.53
6853.47
6899.01
6964.81
7018.96
7076.2
7131.84
7196.97
7270.38
7332.45
7383.39
7432.78
7481.49
7530.28
7573.99
7618.67
7652.38
7690.81
7708.29
7742.82
7432.21
7498.2
7536.45
7584.57
7622.31
7659.5
7691.71
7723.8
7764.88
7803.86
7832.66
7866.33
7899.44
7934.35
7965.59
8001.14
8027.36
8065.7
8083.15
8131.42
7991.77
8056.59
8092.92
8138.8
8175.31
8211.87
8248.22
8286.33
8326.05
8365.71
8402.94
8443.05
8481.74
8522.83
8560.39
8603.27
8636.15
8683.55
8706.33
8765.13
8739.78
8789.45
8815.03
8850.06
8877.37
8906.8
8937.88
8971.84
9005.85
9039.71
9073.23
9108.16
9142.09
9177.81
9209.75
9245.41
9271.58
9308.85
9325.04
9367.15
8957.34
9015.75
9041.86
9083.1
9115.69
9151.38
9187.19
9223.8
9259.3
9293.91
9327.78
9361.91
9394.94
9428.65
9458.5
9490.07
9513.41
9543.67
9557.62
9587.96
9954.68
9961.85
9963.99
9970.73
9972.12
9975.69
9978.21
9981.16
9981.86
9981.78
9980.15
9978.1
9974.8
9971.69
9966.35
9962.36
9955.1
9951.29
9943.99
9937.05
9064.23
9140.54
9178.8
9228.88
9268.06
9304.05
9333.95
9355.14
9372.02
9382.85
9390.04
9393.16
9392.16
9388.96
9383.7
9379.36
9374.64
9372.59
9370.72
9369.89
12060.5
12035.4
11985.5
11918.5
11834.3
11744
11641.5
11514.4
11358
11212
11066.5
10922.6
10782.5
10645.5
10514.9
10387.7
10274.7
10156.5
10075.4
9939.85
)
;

boundaryField
{
    outletWall
    {
        type            fixedValue;
        value           uniform 0;
    }
    fineWalls
    {
        type            zeroGradient;
    }
    fineFrontAndBack
    {
        type            zeroGradient;
    }
    fineplugLeft
    {
        type            cyclicAMI;
        value           nonuniform List<scalar> 
20
(
5586.83
5728.73
5789.93
5882.08
5970.86
6073.01
6184.93
6308.21
6443.31
6589.48
6747.63
6927.46
7084.84
7792.69
7929.71
7887.49
7987.52
7916.45
7788.91
7450.51
)
;
    }
    fineplugRight
    {
        type            cyclicAMI;
        value           nonuniform List<scalar> 
20
(
7958.13
8137.45
8204.91
8313.79
8399.88
8497.45
8587.86
8680.6
8774.38
8877.77
8988.79
9099.12
9236.74
10121.3
9827.54
9750.47
9817.43
9814.13
9817.32
9671.28
)
;
    }
    inletOutletLeft
    {
        type            cyclicAMI;
        value           nonuniform List<scalar> 
20
(
5586.83
5728.73
5789.93
5882.08
5970.86
6073.01
6184.93
6308.21
6443.31
6589.48
6747.63
6927.46
7084.84
7792.69
7929.71
7887.49
7987.52
7916.45
7788.91
7450.51
)
;
    }
    inletLeft
    {
        type            zeroGradient;
    }
    inletWallsLeft
    {
        type            zeroGradient;
    }
    inletFacesLeft
    {
        type            zeroGradient;
    }
    inletOutletRight
    {
        type            cyclicAMI;
        value           nonuniform List<scalar> 
20
(
7958.13
8137.45
8204.91
8313.79
8399.88
8497.45
8587.86
8680.6
8774.38
8877.77
8988.79
9099.12
9236.74
10121.3
9827.54
9750.47
9817.43
9814.13
9817.32
9671.28
)
;
    }
    inletRight
    {
        type            zeroGradient;
    }
    inletWallsRight
    {
        type            zeroGradient;
    }
    inletFacesRight
    {
        type            zeroGradient;
    }
}


// ************************************************************************* //
