/*--------------------------------*- C++ -*----------------------------------*\
| =========                 |                                                 |
| \\      /  F ield         | OpenFOAM: The Open Source CFD Toolbox           |
|  \\    /   O peration     | Version:  4.1                                   |
|   \\  /    A nd           | Web:      www.OpenFOAM.org                      |
|    \\/     M anipulation  |                                                 |
\*---------------------------------------------------------------------------*/
FoamFile
{
    version     2.0;
    format      ascii;
    class       surfaceScalarField;
    location    "8";
    object      phi;
}
// * * * * * * * * * * * * * * * * * * * * * * * * * * * * * * * * * * * * * //

dimensions      [0 3 -1 0 0 0 0];

internalField   nonuniform List<scalar> 
2360
(
11557
16534.4
-4977.43
16534.4
16534.4
23155.3
-6620.89
23155.3
23155.3
23155.3
31539
-8383.68
31539
31539
42615.9
-11076.9
42615.9
42615.9
57755
-15139.1
57755
57755.1
81496.4
-23741.3
81496.5
81496.4
90675.8
103962
117749
131056
143585
155237
153840
12449.6
164123
173767
182837
191394
199499
207215
214593
221677
228482
234991
241140
246697
251047
112541
138506
112541
112541
112541
5594.81
106946
5594.81
5594.79
5594.79
1935.53
3659.25
1935.53
1935.52
-3860.82
5796.34
-3860.83
-3860.83
-3860.84
-107150
103289
-107150
-107150
-107150
-248077
140927
-241445
-233536
-224889
-215832
-206436
-196807
-187075
-177412
-167947
-158694
-149556
-140446
-131331
-126584
4330.66
-117481
-108197
-98724.8
-89010.1
-79011.2
-70407.3
-70407.3
-70407.3
-53732.5
-16674.9
-53732.5
-53732.5
-42273.7
-11458.7
-42273.7
-42273.7
-32541.3
-9732.42
-32541.3
-32541.3
-25024.7
-7516.64
-25024.7
-25024.7
-25024.7
-19029.4
-5995.24
-19029.4
-19029.4
-14496
-4533.42
-73161.8
-37762.5
-62301.9
-36631.6
-50992
248.353
-45230
39189.7
-41331.9
58903.8
-38326.3
64682.9
-35503.4
59820.8
-30364.9
40902.4
-18854.2
-5911.21
-8080.06
-47181.5
-1365.73
-65187.5
5400.07
-62542.4
11731.4
18701.3
11962.2
58883.2
8154.57
55533.1
6454.26
51911.6
7372.75
52296.3
7382.07
58057.9
33577
-61981.6
-41279.7
-53859.4
-44753.8
-45992.9
-7618.24
-42439.3
35636.2
-40718.1
57182.6
-39041.9
63006.7
-36176.1
56955
-28005.6
32731.9
-16563
-17353.8
-12189.8
-51554.8
-9892.37
-67484.9
-2817.13
-69617.6
8731.34
7152.79
10402.9
57211.6
6811.87
59124.1
5250.43
53473.1
7034.58
50512.1
7352.31
57740.2
34934.1
-53829.4
-43133.6
-49528.4
-49054.7
-43958.6
-13188.1
-40592.8
32270.4
-39841.3
56431
-39745.5
62911
-37653.5
54863
-29659.1
24737.4
-23377.5
-23635.4
-24611.5
-50320.8
-23978.1
-68118.3
-17350.9
-76244.8
279.226
-10477.4
7758.47
49732.4
4857.9
62024.6
3621.3
54709.7
6595.16
47538.3
7308.82
57026.5
34726.3
-56474.8
-42643.3
-54597.8
-50931.8
-47741.9
-20044
-41409.2
25937.7
-39817.7
54839.6
-40386.2
63479.5
-39621.2
54098
-35266.2
20382.4
-34976.8
-23924.7
-39095.6
-46202.1
-39627.4
-67586.5
-33297.1
-82575.1
-12485.3
-31289.2
2538.78
34708.3
3043.33
61520.1
1904.76
55848.2
5348.58
44094.4
7047.53
55327.6
32041.3
-63001.3
-39515
-64715.5
-49217.5
-58330.6
-26429
-47900.6
15507.7
-42613.7
49552.7
-41639.4
62505.2
-41689.9
54148.5
-41981.3
20673.8
-45507.3
-20398.7
-50285.4
-41424
-54091.9
-63780
-52821
-83846
-33287.8
-50822.4
-9224.44
10644.9
-459.458
52755.1
572.176
54816.6
5163.19
39503.4
7059.42
53431.3
27642.1
-72477
-33942.7
-77544.9
-44149.6
-73389.1
-30584.8
-60727.2
2845.9
-50778.5
39603.9
-46573.3
58300
-46078.7
53654
-48159.2
22754.3
-52375
-16182.9
-57454.3
-36344.7
-66332.1
-54902.1
-73719.7
-76458.3
-61483
-63059.1
-34235.7
-16602.3
-12701.3
31220.7
-2915.51
45030.8
3396.82
33191.1
7665.73
49162.4
18632.9
-82908.9
-26631.3
-90814.5
-36244
-90635.7
-30763.6
-79400.6
-8389.17
-65946.6
26149.9
-57487.6
49840.9
-54398.5
50564.9
-56834.8
25190.6
-64545.1
-8472.63
-72964.4
-27925.4
-85631.3
-42235.2
-96186.4
-65903.3
-89693.1
-69552.5
-68128.2
-38167.2
-39874.4
2966.85
-15881.9
21038.3
109.802
17199.4
30927.5
18344.7
53891.1
-92166
-18618.1
-101706
-26703.7
-106295
-26174.6
-101128
-13556.3
-88447.3
13468.9
-76803.1
38196.7
-73051.5
46813.3
-81713.5
33852.5
-97727.8
7541.69
-108422
-17231.3
-111719
-38937.7
-114268
-63354.4
-113656
-70165
-103167
-48656.1
-85608.6
-14591.3
-72021.6
7451.29
-71872.6
17050.4
-91880.8
38352.9
102937
-98412.9
-10764.8
-108433
-16683.9
-117420
-17187.5
-121459
-9517.39
-116767
8776.86
-107546
28976.5
-102151
41418.5
-105552
37253
-113395
15384.9
-118016
-12610.2
-120013
-36940.7
-124397
-58970.8
-129113
-65448.8
-129589
-48180
-126574
-17606.2
-125118
5994.6
-127498
19431.3
-126793
37647.6
79433
-101407
-3241.18
-111164
-6927.2
-122213
-6138.46
-132356
625.191
-136698
13119.3
-134439
26717.5
-128502
35481
-122280
31031.8
-116715
9819.37
-112680
-16645.3
-113011
-36609.3
-120078
-51904.4
-130185
-55341.3
-136164
-42200.6
-136243
-17527.4
-131738
1489.42
-118738
6431.28
-84597.1
3506.84
632.202
-100654
4561.91
-110338
2756.53
-121393
4916.21
-133407
12639.8
-142319
22031.4
-144251
28649.3
-135757
26987.2
-117209
12483.5
-96502.7
-10887
-84728.1
-28419.9
-85747.1
-35590.3
-97872.8
-39778.7
-116182
-37032.4
-131237
-27145.9
-136579
-12185.1
-133173
-1916.06
-119441
-7301.33
-84180
-31753.9
-79888.6
-95924.4
13356.5
-106586
13418.2
-117480
15810.6
-129609
24768.2
-137835
30257.5
-134172
24986.7
-112371
5185.89
-79805.2
-20082.3
-55184.2
-35508
-47180.6
-36423.6
-52039.5
-30731.4
-66093.8
-25724.3
-86081.2
-17045
-107821
-5406.42
-124236
4229.89
-132845
6693.05
-136121
-4025.07
-132520
-35354.5
-105463
-87564.2
23134.5
-99854.1
25708
-110888
26844.5
-121167
35047.2
-122332
31422.4
-105226
7880.84
-74189.1
-25851
-46923.7
-47347.7
-32725
-49706.7
-28945
-40203.6
-32074.5
-27601.9
-41015
-16783.8
-53090.5
-4969.51
-64672.1
6175.16
-72934.6
12492.4
-73336.5
7094.93
-72657.9
-4703.6
-90766.4
-17246
-57723.6
-76457.1
33151.6
-90057
39307.9
-101015
37802.2
-107370
41402.3
-98806.3
22858.9
-75040.2
-15885.3
-50953.1
-49938.1
-36247.8
-62053
-28920.8
-57033.7
-25720.9
-43403.5
-24379.5
-28943.3
-25783.1
-15380.2
-30089.2
-663.413
-32205.7
8291.65
-27662.8
7949.5
-12488.4
-8079.44
4266.94
-21458.9
28280.5
-41259.6
-16993.4
-64277.8
42094.5
-77851.6
52881.7
-88188.7
48139.3
-90042.1
43255.7
-74909.3
7726.07
-53896.4
-36898.2
-39801.9
-64032.6
-32499.6
-69355.4
-28209.6
-61323.7
-24569.5
-47043.6
-20642
-32870.8
-17261.4
-18760.8
-15442.6
-2482.21
-12230.3
5079.35
-5014.45
733.659
4517.59
-17611.5
10590.6
-27531.9
16390.6
-47059.6
-24344.1
-53290
48032.7
-64518.6
64110.4
-73846.2
57466.8
-72542.6
41952.2
-56442.2
-8374.34
-41762.7
-51577.7
-34474.3
-71321
-30698.6
-73131.1
-27439.2
-64583.1
-23360.6
-51122.2
-18065.1
-38166.3
-11649.1
-25176.8
-6382.11
-7749.23
-2439.1
1136.34
3056.94
-4762.38
8999.3
-23553.8
12207.7
-30740.3
12478.5
-47330.3
-27004.7
-47009.8
49643.1
-53310.5
70411
-60319.1
64475.5
-57061.9
38695
-44093.6
-21342.6
-35935.5
-59735.7
-32462.4
-74794.1
-29579.6
-76013.9
-26139.4
-68023.3
-22050.5
-55211.1
-17068.4
-43148.3
-10637.5
-31607.7
-2948.59
-15438.2
2279.45
-4091.7
5409.9
-7892.83
9092.88
-27236.8
10461.3
-32108.7
9289.68
-46158.7
-28792
-46720.8
45944.8
-45732.1
69422.4
-49292.3
68035.6
-46212.7
35615.4
-38529.6
-29025.7
-34656.8
-63608.6
-32132.2
-77318.7
-28768.2
-79377.9
-25072.7
-71718.8
-21360.4
-58923.4
-17165.1
-47343.6
-11772.1
-37000.7
-4342.8
-22867.5
2222.39
-10656.9
4962.52
-10633
7244.61
-29518.9
8544.34
-33408.5
8157.06
-45771.5
-29018.6
-57276.2
38570.8
-48551.4
60697.5
-45671.2
65155.4
-41487.4
31431.6
-37906.4
-32606.7
-35566.2
-65948.8
-32209.6
-80675.3
-28253.9
-83333.6
-24608.5
-75364.2
-21214
-62317.9
-17359.4
-51198.2
-12572.6
-41787.5
-6680.29
-28759.8
-775.055
-16562.1
2374.01
-13782
5162.76
-32307.7
7164.52
-35410.2
7575.31
-46182.3
-28064.1
-79106.8
-69675.5
-58919.7
-48252.8
-41138.7
-36579.5
-32144.8
-28065.8
-24605.1
-21366.2
-17690.4
-13333.9
-8355.65
-3088.82
975.345
4425.33
6781.51
7479.4
1242.87
-10422.2
3284.77
-15328
5223.07
-15725.8
6917.02
-15000.7
8292.49
-13904.5
9348.56
-12708.1
9899.36
-11603
10306.8
-10690.2
10555.1
-9893.12
10648.7
-9162.77
10587.8
-8496.57
10362
-7879.41
9964.26
-7317.5
9379.45
-6793.84
8600.31
-6305
7604.49
-5808.42
6378.61
-5283.59
4863.81
-4634.03
2898.73
-3592.36
-1450.38
1120.52
-11542.7
1900.73
-16108.2
2358.23
-16183.3
2611.42
-15253.9
2702.29
-13995.3
2720.17
-12725.9
2844.8
-11727.6
3011.39
-10856.7
3209.8
-10091.5
3392.08
-9345.01
3541.46
-8645.92
3618.99
-7956.9
3610.48
-7308.97
3487.11
-6670.44
3244.86
-6062.74
2863.39
-5426.93
2350.86
-4771.06
1684.71
-3967.88
763.121
-2670.78
-687.257
910.705
-12453.3
1448.44
-16645.9
1630.3
-16365.2
1637.94
-15261.5
1571.24
-13928.6
1533.59
-12688.2
1604.68
-11798.6
1717.96
-10970
1857.42
-10230.9
1976.88
-9464.43
2085.35
-8754.36
2157.77
-8029.28
2205.65
-7356.82
2210
-6674.75
2177.83
-6030.55
2086.38
-5335.45
1926.5
-4611.18
1639.2
-3680.57
914.168
-1945.73
226.912
736.372
-13189.7
898.562
-16808.1
788.319
-16254.9
622.94
-15096.1
486.943
-13792.6
429.413
-12630.6
450.792
-11820
472.575
-10991.7
497.161
-10255.5
510.237
-9477.47
530.176
-8774.28
553.659
-8052.74
594.755
-7397.9
648.901
-6728.86
717.65
-6099.28
783.119
-5400.9
814.471
-4642.52
710.078
-3576.17
221.788
-1457.42
448.7
473.216
-13662.9
479.07
-16813.9
346.941
-16122.7
211.967
-14961.1
128.497
-13709.1
100.128
-12602.2
86.3856
-11806.2
68.7106
-10974
46.8963
-10233.6
32.8994
-9463.43
25.5409
-8766.89
39.1175
-8066.27
66.0544
-7424.82
114.346
-6777.12
164.515
-6149.43
214.224
-5450.59
215.354
-4643.65
93.3646
-3454.16
-177.971
-1186.05
270.729
184.125
-13847
256.595
-16886.4
243.431
-16109.6
195.271
-14912.9
170.704
-13684.5
175.002
-12606.5
172.856
-11804.1
175.888
-10977
167.912
-10225.7
169.151
-9464.65
162.83
-8760.56
165.019
-8068.44
153.338
-7413.13
134.369
-6758.13
81.8032
-6096.86
1.34055
-5370.11
-136.037
-4506.27
-301.086
-3289.11
-276.757
-1210.36
-6.02723
50.2671
-13897.3
376.322
-17212.4
559.601
-16292.8
617.114
-14970.4
677.804
-13745.2
760.099
-12688.8
834.54
-11878.5
905.443
-11047.9
955.47
-10275.7
997.315
-9506.48
1013.32
-8776.56
1007.87
-8062.97
961.387
-7366.64
872.087
-6668.82
726.267
-5951.02
530.514
-5174.35
292.159
-4267.9
98.805
-3095.74
197.994
-1309.51
191.969
290.053
-14187.3
900.608
-17823
1272.77
-16665
1452.44
-15150.1
1669.63
-13962.4
1910.95
-12930.1
2148.61
-12116.1
2366.41
-11265.7
2553.36
-10462.6
2701.52
-9654.65
2788.68
-8863.72
2800.66
-8074.96
2720.12
-7286.09
2538.88
-6487.59
2254.78
-5666.91
1872.86
-4792.42
1416.2
-3811.23
936.974
-2616.49
584.312
-956.782
776.282
1005.99
-15193.3
1731.93
-18548.9
2193.24
-17126.3
2532.31
-15489.2
3022.44
-14452.5
3550.26
-13457.9
4106.13
-12672
4653.79
-11813.4
5178.06
-10986.9
5624.44
-10101
5943.87
-9183.12
6094.02
-8225.1
6050.7
-7242.74
5799.52
-6236.4
5336.46
-5203.82
4654.57
-4110.51
3765.38
-2922.01
2677.01
-1528.07
1441.35
278.941
2217.64
1749.28
-16942.6
2114.95
-18914.6
2423.57
-17435
2885.59
-15951.2
3604.05
-15170.9
4393.96
-14247.9
5304.13
-13582.2
6272.91
-12782.2
7255.2
-11969.2
8107.82
-10953.7
8742.12
-9817.42
9093.67
-8576.67
9147.12
-7296.19
8882.88
-5972.17
8275.02
-4595.96
7276.12
-3111.62
5776.69
-1422.58
3587.8
660.828
1824.97
2041.78
4042.61
1400.83
-18343.5
863.896
-18377.7
724.639
-17295.7
896.631
-16123.3
1264.58
-15538.9
1741.55
-14724.9
2392.72
-14233.4
3135.66
-13525.2
3856.72
-12690.2
4346.78
-11443.8
4516.59
-9987.24
4342.38
-8402.5
3863.21
-6817.02
3084.47
-5193.45
2020.13
-3531.61
797.54
-1889.04
-239.377
-385.631
-686.56
1108.05
-1084.27
2439.52
2958.33
-258.587
-18084.9
-1420.46
-17215.9
-2241.38
-16474.9
-2979.4
-15385.4
-3669.48
-14848.9
-4324.97
-14069.5
-4916.27
-13642.1
-5487.05
-12954.5
-6116.54
-12060.8
-6891.35
-10669.1
-7833.18
-9045.42
-8914.23
-7321.51
-10088.1
-5643.17
-11280.7
-4000.86
-12334.2
-2478.08
-12903.6
-1319.64
-12433
-856.266
-10181.2
-1143.73
-5688.07
-2053.54
-2729.74
-1128.79
-16956.2
-2052.36
-16292.4
-3060.68
-15466.6
-4277.29
-14168.8
-5519.93
-13606.3
-6966.73
-12622.8
-8539.42
-12069.4
-10248.6
-11245.3
-11949.6
-10359.8
-13522.9
-9095.83
-14894.2
-7674.12
-16047.5
-6168.25
-16940.5
-4750.11
-17363.2
-3578.21
-16907.2
-2934
-15188.2
-3038.74
-12144
-3900.38
-7884.34
-5403.42
-3245.3
-6692.56
-5975.04
-274.602
-16681.6
-349.201
-16217.9
-519.127
-15296.7
-905.966
-13782
-1290.93
-13221.4
-1883.37
-12030.4
-2613.24
-11339.6
-3481.15
-10377.5
-4271.4
-9569.61
-4754.02
-8613.25
-4771.94
-7656.23
-4279.72
-6660.51
-3305.88
-5723.98
-1916.75
-4967.39
-248.892
-4601.91
1433.32
-4721
2673.57
-5140.66
2908.48
-5638.34
1822.03
-5606.12
-4153.01
464.471
-17146.1
737.852
-16491.3
1123.43
-15682.3
1455.8
-14114.4
1813
-13578.6
2166.08
-12383.5
2488.87
-11662.4
2815.16
-10703.8
3165.27
-9919.75
3662.47
-9110.48
4380.22
-8374
5381.09
-7661.41
6630.64
-6973.55
7948.15
-6284.92
8936.9
-5590.68
9123.49
-4907.6
8255.32
-4272.49
6289.08
-3672.11
3431.46
-2748.52
-721.547
659.854
-17806
763.877
-16595.3
1164.83
-16083.3
1597.01
-14546.6
2062.75
-14044.3
2588.06
-12908.8
3143.53
-12217.9
3763.64
-11323.9
4408.21
-10564.3
5066.87
-9769.14
5712.1
-9019.24
6334.04
-8283.35
6918.38
-7557.91
7414.8
-6781.34
7709.13
-5885.01
7574.54
-4773.02
6755.56
-3453.53
5189.37
-2105.94
2867.06
-426.235
2145.51
194.54
-18000.5
-27.5362
-16373.2
63.6773
-16174.5
274.58
-14757.5
525.658
-14295.4
909.29
-13292.5
1345.32
-12653.9
1882.71
-11861.3
2500.16
-11181.8
3208.92
-10477.9
4007.16
-9817.49
4880.98
-9157.18
5781.63
-8458.57
6585.05
-7584.77
7071.6
-6371.57
6930.09
-4631.52
5713.48
-2236.93
2932.97
674.562
1071.8
1434.91
3217.3
-1262.94
-16737.6
-2653.77
-14982.4
-3705.98
-15122.3
-4443.11
-14020.4
-5086.94
-13651.6
-5455.62
-12923.8
-5706.92
-12402.6
-5766.15
-11802.1
-5687.1
-11260.8
-5448.49
-10716.5
-5061.27
-10204.7
-4525.32
-9693.13
-3865.77
-9118.13
-3126.15
-8324.39
-2384.75
-7112.98
-1714.4
-5301.89
-1178.56
-2772.8
-817.037
312.996
-797.311
1415.16
2419.99
-2208.97
-14528.6
-4697.53
-12493.8
-7162.53
-12657.3
-9245.8
-11937.1
-11229.2
-11668.1
-12903
-11250
-14383.4
-10922.2
-15611.4
-10574.1
-16627.4
-10244.8
-17428.1
-9915.8
-18037.6
-9595.24
-18454.2
-9276.57
-18635.2
-8937.11
-18442.4
-8517.16
-17633.7
-7921.73
-15872.4
-7063.13
-12738.5
-5906.73
-7992.25
-4433.26
-3755.59
-2821.52
-1335.59
-5428.61
-8822.45
-12379.7
-15216.8
-17785
-19935
-21757.2
-23231.3
-24376.1
-25191.9
-25687.2
-25863.7
-25700.9
-25118
-23939.8
-21902.9
-18709.6
-14042.9
-7764.41
-5429.36
14529.4
-8823.73
12494.4
-12381.6
12657.9
-15219.1
11937.5
-17787.6
11668.4
-19937.6
11250.1
-21759.7
10922.1
-23233.4
10573.8
-24377.6
10244.2
-25192.4
9914.78
-25685.9
9593.57
-25860.2
9274.3
-25695.5
8935.27
-25113.1
8517.61
-23938.5
7925.46
-21906.7
7068.17
-18716.1
5909.45
-14048.1
4431.93
-7765.68
2817.64
1334.32
-2207.21
16736.7
-4693.59
14980.8
-7155.71
15120.1
-9235.27
14017.1
-11214.7
13647.9
-12883.9
12919.3
-14359.3
12397.5
-15581.8
11796.3
-16591.8
11254.2
-17385.6
10708.6
-17987.2
10195.2
-18395.8
9682.94
-18571.8
9111.26
-18381.1
8326.97
-17584
7128.37
-15842.1
5326.29
-12732.5
2799.81
-7985.4
-315.144
-3750.17
-1417.57
-2415.86
-1260.31
17997
-2645.34
16365.9
-3694.34
16169.1
-4428.3
14751.1
-5069.8
14289.4
-5436.2
13285.7
-5685.84
12647.2
-5743.58
11854.1
-5663.57
11174.3
-5424.66
10469.8
-5037.95
9808.49
-4502.79
9147.81
-3843.22
8451.71
-3102.03
7585.81
-2358.59
6384.95
-1688.28
4656.02
-1156.28
2267.88
-795.448
-675.882
-786.052
-1426.91
-3201.91
185.407
17811.6
-39.6665
16591
45.9672
16083.5
251.577
14545.5
495.607
14045.4
873.308
12908.1
1301.92
12218.6
1831.99
11324
2440.21
10566
3138.77
9771.21
3926.08
9021.19
4789.8
8284.11
5683.61
7557.91
6487.2
6782.23
6983.37
5888.79
6860.56
4778.85
5670.64
3457.82
2890.9
2103.88
1043.1
420.917
-2158.81
645.554
17166.1
757.361
16479.2
1150.53
15690.4
1569.3
14126.8
2019.45
13595.3
2525.37
12402.2
3058.29
11685.7
3654.29
10728.1
4275.94
9944.43
4913.81
9133.37
5538.35
8396.68
6138.53
7683.95
6699.88
6996.59
7173.57
6308.56
7451.02
5611.35
7317.26
4912.63
6528.42
4246.67
5022.73
3609.59
2781.28
2662.39
622.473
402.238
16763.9
671.456
16210
1042.67
15319.1
1364.56
13804.9
1705.49
13254.3
2038.73
12068.9
2333.64
11390.8
2629.05
10432.7
2941.3
9632.16
3397.87
8676.79
4070.3
7724.24
5016.94
6737.29
6202.15
5811.37
7452.2
5058.49
8388.4
4675.14
8572.91
4728.11
7782.85
5036.72
5968.05
5424.39
3284.93
5345.52
3907.4
-165.46
16929.3
-331.617
16376.2
-638.726
15626.2
-1294.61
14460.8
-1885.97
13845.7
-2667.4
12850.4
-3465.65
12189
-4314.56
11281.6
-5009.35
10326.9
-5376.08
9043.52
-5285.5
7633.65
-4655.14
6106.92
-3534.41
4690.63
-2031.46
3555.52
-287.663
2931.33
1395.53
3044.9
2528.44
3903.81
2634.07
5318.75
1586.42
6393.16
5493.82
-590.193
17519.5
-1343.35
17129.3
-2221.48
16504.4
-3445.44
15684.8
-4583.38
14983.6
-5941.1
14208.1
-7289.62
13537.5
-8769.98
12761.9
-10279.5
11836.4
-11785.6
10549.6
-13099.8
8947.92
-14148.4
7155.48
-14935.8
5477.99
-15326.6
3946.25
-14943.9
2548.62
-13386.2
1487.19
-10554.7
1072.35
-6720.16
1484.18
-2757.55
2430.54
2736.26
100.692
17418.8
-132.974
17363
-222.021
16593.4
-327.317
15790
-383.337
15039.6
-499.684
14324.4
-634.088
13671.9
-919.423
13047.2
-1466.95
12383.9
-2386.99
11469.6
-3595.63
10156.5
-5042.95
8602.78
-6635.48
7070.51
-8259.92
5570.68
-9757.02
4045.72
-10743.7
2473.9
-10596.6
925.249
-8747.25
-365.219
-4783.37
-1533.35
-2047.11
1130.96
16287.8
1884.16
16609.8
2711.16
15766.4
3516.16
14985
4297.52
14258.3
5047.79
13574.1
5782.92
12936.8
6471.08
12359.1
7047.84
11807.1
7365.88
11151.5
7252.71
10269.7
6673.07
9182.41
5752.74
7990.83
4582.45
6740.96
3185.78
5442.38
1611.23
4048.43
33.1093
2503.33
-852.04
519.879
-1150.13
-1235.29
-3197.24
1305.09
14982.7
2375.28
15539.6
3302.17
14839.5
4100.06
14187.1
4794.85
13563.5
5404.57
12964.4
5949.58
12391.8
6475.18
11833.5
6996.54
11285.8
7477.02
10671.1
7858.06
9888.65
8047.76
8992.69
8013.18
8025.4
7739.91
7014.21
7202.24
5980.04
6357.99
4892.67
5138.18
3723.13
3289.03
2369.03
1478.02
575.7
-1719.22
969.46
14013.2
1810.34
14698.7
2508.81
14141
3105.37
13590.6
3607.79
13061.1
4009.12
12563.1
4323.21
12077.7
4596.34
11560.3
4792.05
11090.1
4868.37
10594.7
4917.26
9839.75
4915.43
8994.51
4820.23
8120.59
4599.68
7234.75
4231.29
6348.42
3695.7
5428.25
2976.57
4442.25
2067.24
3278.34
1040.53
1602.38
-678.691
749.899
13263.3
1394.56
14054
2014.36
13521.2
2615.14
12989.8
3168.8
12507.4
3642.72
12089.1
4022.21
11698.2
4313.26
11269.3
4492.4
10910.9
4491.65
10595.5
4314.51
10016.9
4011.27
9297.73
3622.53
8509.32
3176.81
7680.46
2691.93
6833.28
2175.31
5944.86
1619.52
4998.02
1022.02
3875.82
378.121
2246.24
-300.57
761.077
12502.3
1388.29
13426.8
2051.69
12857.8
2729.47
12312
3382.25
11854.6
3973.76
11497.6
4465.91
11206
4841.82
10893.4
5153.43
10599.3
5368.51
10380.4
5332.71
10052.7
5047.95
9582.47
4574.38
8982.89
3982.57
8272.26
3335
7480.83
2674.94
6604.91
2018.95
5654
1364.47
4530.29
617.322
2993.35
316.751
797.463
11704.8
1444.5
12779.8
2102.65
12199.7
2754.31
11660.3
3374.53
11234.4
3947.91
10924.2
4461.45
10692.5
4893.68
10461.1
5266.44
10226.5
5587.72
10059.1
5736.08
9904.29
5641.21
9677.34
5304.93
9319.15
4775.3
8801.88
4117.27
8138.86
3387.17
7334.99
2623.73
6417.43
1838.32
5315.69
974.141
3857.5
1290.89
735.811
10969
1355.21
12160.4
1941.71
11613.2
2487.82
11114.2
2987.78
10734.4
3448.13
10463.9
3874.59
10266
4252.82
10082.9
4581.02
9898.31
4872.24
9767.87
5069.69
9706.84
5099.61
9647.42
4926.17
9492.59
4560.92
9167.12
4042.71
8657.06
3410.34
7967.35
2696.42
7131.34
1911.88
6100.22
1054.62
4714.74
2345.52
600.948
10368
1137.15
11624.2
1597.9
11152.4
1999.08
10713
2355.14
10378.3
2685.25
10133.8
3002.76
9948.5
3292.21
9793.43
3542.77
9647.74
3760.69
9549.94
3925.55
9541.97
3988.09
9584.88
3911.84
9568.83
3692.43
9386.53
3346.01
9003.48
2886.07
8427.28
2325.32
7692.09
1659.61
6765.92
912.664
5461.68
3258.18
465.387
9902.63
932.312
11157.2
1334.88
10749.9
1670.98
10376.9
1957.29
10092
2212.99
9878.08
2442.69
9718.79
2666.85
9569.27
2868.29
9446.3
3040.84
9377.39
3172.44
9410.37
3235.43
9521.88
3209.9
9594.35
3091.28
9505.15
2880.19
9214.56
2567.58
8739.9
2144.05
8115.6
1587.67
7322.3
910.182
6139.16
4168.36
499.9
9402.73
748.803
10908.3
995.282
10503.4
1222.45
10149.8
1440.28
9874.2
1667.18
9651.18
1966.61
9419.36
2230.49
9305.38
2448.2
9228.59
2625.5
9200.09
2757.71
9278.16
2825.71
9453.88
2818.34
9601.72
2734.66
9588.83
2574.84
9374.38
2320.72
8994.01
1958.18
8478.14
1445.52
7834.96
807.429
6777.25
4975.79
798.888
1708.28
2496.96
3174.89
3765.03
4313.11
4654.61
4844.99
4963.12
5025.56
5050.51
5040.04
4978.35
4835.55
4580.87
4179.04
3599.43
2788.04
1655.57
)
;

boundaryField
{
    outletWall
    {
        type            calculated;
        value           nonuniform List<scalar> 
60
(
-14496
-30728.3
-58067.2
-53214.8
-50211.3
-51725.4
-59114
-25032.6
55776.6
58473.2
36407.4
-5599.44
-46040.9
-62643.7
-67688.6
-62801.8
-44951.7
-11558.2
25771.7
34229
83322.7
64650.2
50419.1
45399.5
47351.7
55335
66440
77786.2
87129.8
92851.1
93883.7
90559.6
84152.8
75597.5
66904.7
59873
55984.6
55683.3
65498.8
76695.2
-11557
-25562.2
-46880.1
-37766.4
-35757.6
-17846.2
-21829
-33738
-46144
-54874.1
-65556.8
-78824.9
-87412.7
-85110
-70508
-39720.8
20764.7
54399.6
51266.3
34354.9
)
;
    }
    fineWalls
    {
        type            calculated;
        value           uniform 0;
    }
    fineFrontAndBack
    {
        type            calculated;
        value           nonuniform List<scalar> 
960
(
1.06193e-14
9.6188e-14
-6.77208e-14
-3.38531e-14
-1.03907e-13
-1.13274e-14
9.5741e-14
-5.53827e-13
2.87945e-12
1.3925e-12
1.45128e-12
-9.50837e-12
-3.52721e-12
-2.75527e-12
-3.56104e-11
-7.64184e-12
-6.36535e-12
-2.27031e-11
-2.66748e-12
-1.96411e-12
-2.46379e-12
-4.4348e-12
-5.64499e-12
-6.69564e-12
-7.59271e-12
-8.21735e-12
-1.32124e-10
-9.98002e-12
-1.05925e-11
-1.11072e-11
-1.15823e-11
-1.20399e-11
-1.25569e-11
-1.31542e-11
-1.35893e-11
-1.41063e-11
-1.45974e-11
-1.51804e-11
-1.5078e-11
-1.80263e-11
-3.58003e-10
-4.31561e-11
-4.21002e-11
-4.2389e-11
-1.8097e-10
-1.80287e-11
-1.07646e-11
-2.56288e-12
5.82388e-11
3.67609e-12
-1.04429e-11
-1.51359e-10
-1.17289e-11
-2.19431e-12
7.40726e-12
1.25874e-10
2.75942e-11
2.70133e-11
2.57248e-11
2.43512e-10
1.42335e-11
1.21423e-11
1.15774e-11
1.11497e-11
1.04251e-11
9.71246e-12
9.1656e-12
8.54403e-12
8.12903e-12
7.85913e-12
7.52966e-12
7.20407e-12
6.97946e-12
4.94462e-11
6.66748e-12
5.85138e-12
5.30973e-12
4.95349e-12
4.39054e-12
2.43524e-12
-1.14318e-12
-4.33845e-12
-3.07443e-11
-6.74657e-12
-6.80174e-12
-3.36742e-11
-5.07615e-12
-4.63892e-12
-1.88431e-11
-2.39839e-12
-1.74028e-12
-2.33546e-12
2.38814e-13
4.80393e-13
4.27108e-13
1.49017e-12
1.21523e-13
-5.43666e-14
-2.19536e-13
1.42979e-13
-7.76577e-11
-7.17363e-11
-5.36658e-11
-4.23317e-11
-3.4132e-11
-2.7631e-11
-2.30081e-11
-1.97008e-11
-1.39842e-11
8.96734e-12
5.48539e-11
1.2578e-10
1.39377e-10
2.71662e-11
-4.97772e-12
-2.25831e-12
-2.08706e-13
-1.24131e-13
5.24086e-13
-6.45401e-11
-5.89402e-11
-5.08955e-11
-3.97537e-11
-3.1409e-11
-2.59549e-11
-2.24875e-11
-1.92484e-11
-2.76037e-12
4.88127e-11
1.42598e-10
2.61909e-10
2.75536e-10
6.41685e-11
-2.46762e-12
-3.27395e-12
-3.94715e-13
-1.16182e-13
2.39626e-13
-5.22177e-11
-5.07452e-11
-4.68299e-11
-3.90052e-11
-2.98413e-11
-2.35832e-11
-2.15693e-11
-1.68191e-11
1.97242e-11
9.53738e-11
2.15551e-10
3.40261e-10
3.13809e-10
1.16418e-10
1.71745e-11
-3.70664e-12
-1.13448e-12
-1.22131e-13
7.70175e-14
-5.38452e-11
-4.93797e-11
-3.753e-11
-3.56777e-11
-3.06194e-11
-2.27393e-11
-1.99584e-11
-9.90134e-12
4.50883e-11
1.31971e-10
2.62397e-10
3.94979e-10
3.24468e-10
1.59799e-10
4.79147e-11
-6.95872e-13
-2.19784e-12
-5.18553e-13
2.1341e-12
-5.97682e-11
-3.68552e-11
-5.77095e-12
-1.51039e-11
-2.84201e-11
-2.48997e-11
-2.04109e-11
-3.44616e-12
6.41883e-11
1.53124e-10
2.71832e-10
4.24011e-10
3.36461e-10
1.76982e-10
7.76176e-11
7.50668e-12
-1.979e-12
-7.26329e-13
4.66539e-12
-6.3319e-11
-3.93653e-12
5.85007e-11
4.31337e-11
-7.14546e-12
-2.17086e-11
-1.6884e-11
1.25328e-11
1.02743e-10
2.00557e-10
2.8976e-10
4.11988e-10
3.40179e-10
2.24002e-10
1.06288e-10
2.37047e-11
-4.36337e-12
-2.89535e-12
1.79532e-11
-5.90348e-11
4.64294e-11
1.48259e-10
1.45428e-10
4.54899e-11
-1.60853e-11
-2.60388e-11
2.27298e-11
1.68744e-10
2.80392e-10
3.10464e-10
3.28443e-10
2.99971e-10
2.61603e-10
1.61218e-10
7.16613e-11
1.59703e-11
-4.198e-12
-6.7065e-11
-4.86979e-11
9.33206e-11
2.33224e-10
2.82354e-10
1.75789e-10
4.70161e-11
9.01724e-12
1.10628e-10
2.74354e-10
2.54267e-10
1.35246e-10
1.07872e-10
1.84678e-10
2.48292e-10
2.34802e-10
1.90612e-10
1.84175e-10
2.10349e-10
2.72606e-10
-4.11698e-11
1.04435e-10
2.58568e-10
3.89097e-10
4.10553e-10
3.2918e-10
2.6875e-10
2.64072e-10
1.57093e-10
-1.00945e-10
-2.34307e-10
-1.87508e-10
-3.75653e-11
1.30763e-10
2.38303e-10
2.66863e-10
2.96776e-10
3.22755e-10
3.14228e-10
-4.64698e-11
5.69647e-11
1.76396e-10
3.21197e-10
4.30919e-10
4.38501e-10
3.35463e-10
1.12469e-10
-2.25691e-10
-4.81542e-10
-4.83894e-10
-4.12362e-10
-2.94065e-10
-1.3371e-10
4.09698e-11
1.18122e-10
1.49171e-10
1.57804e-10
9.0412e-11
-7.18013e-11
-6.14856e-11
-3.6342e-11
1.28064e-11
6.50668e-11
6.06352e-11
-5.33064e-11
-2.63029e-10
-4.26878e-10
-4.01322e-10
-3.53994e-10
-3.71053e-10
-3.9504e-10
-3.63583e-10
-2.75629e-10
-2.19257e-10
-2.30037e-10
-2.60133e-10
-2.21225e-10
-8.04766e-11
-1.27667e-10
-1.68692e-10
-2.0698e-10
-2.51022e-10
-3.1525e-10
-3.72077e-10
-3.36873e-10
-2.04559e-10
-1.23395e-10
-1.39607e-10
-2.18233e-10
-3.12993e-10
-3.8287e-10
-4.07837e-10
-4.05039e-10
-4.31242e-10
-4.59376e-10
-4.43694e-10
-6.59636e-11
-1.3439e-10
-2.16444e-10
-3.09572e-10
-3.85998e-10
-3.85387e-10
-2.46195e-10
-6.54528e-11
1.30596e-11
1.63992e-11
-1.48661e-11
-8.52739e-11
-1.89132e-10
-2.6683e-10
-3.10646e-10
-3.04191e-10
-2.80524e-10
-3.01919e-10
-4.16779e-10
-4.33112e-11
-1.0683e-10
-1.97944e-10
-2.99384e-10
-3.35715e-10
-2.20214e-10
-4.33516e-11
2.89893e-11
3.10677e-11
1.97586e-11
7.96494e-12
-2.06515e-11
-8.80199e-11
-1.55117e-10
-1.90952e-10
-1.61585e-10
-8.77464e-11
-3.2179e-11
5.03349e-11
-2.29901e-11
-7.00338e-11
-1.44886e-10
-2.21175e-10
-2.03182e-10
-6.27547e-11
2.12454e-11
3.03744e-11
2.05578e-11
1.66092e-11
1.4078e-11
2.02434e-12
-2.97832e-11
-6.88533e-11
-8.5381e-11
-6.18439e-11
-3.26677e-11
-1.15121e-11
5.06793e-12
-8.1243e-12
-3.98313e-11
-8.84122e-11
-1.31247e-10
-8.57883e-11
6.03966e-12
3.21503e-11
2.52421e-11
1.7428e-11
1.65362e-11
1.60748e-11
1.18729e-11
3.77984e-13
-2.29198e-11
-2.98949e-11
-2.03512e-11
-1.31617e-11
-4.19604e-12
2.74233e-12
4.25689e-12
-2.07694e-11
-4.64554e-11
-6.35804e-11
-1.66951e-11
2.9976e-11
3.46487e-11
2.47816e-11
1.87473e-11
1.7811e-11
1.65622e-11
1.37321e-11
9.88902e-12
6.07469e-14
-6.53658e-12
-4.65955e-12
-3.16087e-12
-7.02516e-13
5.07278e-14
1.99043e-11
-8.45255e-12
-2.22875e-11
-2.44861e-11
1.62366e-11
4.10921e-11
3.6722e-11
2.61816e-11
2.0046e-11
1.81996e-11
1.70224e-11
1.42662e-11
1.07823e-11
7.58165e-12
2.9657e-12
1.03618e-12
-6.22582e-14
-6.72185e-13
-9.49218e-13
4.69596e-11
1.08036e-11
-4.80825e-12
-1.22624e-13
3.6758e-11
4.71441e-11
3.85071e-11
2.81051e-11
2.08516e-11
1.81923e-11
1.73406e-11
1.49031e-11
1.12791e-11
7.84397e-12
4.94254e-12
1.57819e-12
-5.4351e-13
-7.35759e-13
-4.22622e-13
8.07846e-11
6.38271e-11
4.55721e-11
4.17567e-11
5.02007e-11
4.86666e-11
4.02503e-11
2.9738e-11
2.15181e-11
1.83499e-11
1.7638e-11
1.53975e-11
1.17633e-11
8.1302e-12
4.76483e-12
1.30158e-12
-6.02499e-13
-6.79367e-13
-4.70816e-13
-1.06193e-14
-9.6188e-14
6.77208e-14
3.38531e-14
1.03907e-13
1.13274e-14
-9.5741e-14
5.53827e-13
-2.87945e-12
-1.3925e-12
-1.45128e-12
9.50837e-12
3.52721e-12
2.75527e-12
3.56104e-11
7.64184e-12
6.36535e-12
2.27031e-11
2.66748e-12
1.96411e-12
2.46379e-12
4.4348e-12
5.64499e-12
6.69564e-12
7.59271e-12
8.21735e-12
1.32124e-10
9.98002e-12
1.05925e-11
1.11072e-11
1.15823e-11
1.20399e-11
1.25569e-11
1.31542e-11
1.35893e-11
1.41063e-11
1.45974e-11
1.51804e-11
1.5078e-11
1.80263e-11
3.58003e-10
4.31561e-11
4.21002e-11
4.2389e-11
1.8097e-10
1.80287e-11
1.07646e-11
2.56288e-12
-5.82388e-11
-3.67609e-12
1.04429e-11
1.51359e-10
1.17289e-11
2.19431e-12
-7.40726e-12
-1.25874e-10
-2.75942e-11
-2.70133e-11
-2.57248e-11
-2.43512e-10
-1.42335e-11
-1.21423e-11
-1.15774e-11
-1.11497e-11
-1.04251e-11
-9.71246e-12
-9.1656e-12
-8.54403e-12
-8.12903e-12
-7.85913e-12
-7.52966e-12
-7.20407e-12
-6.97946e-12
-4.94462e-11
-6.66748e-12
-5.85138e-12
-5.30973e-12
-4.95349e-12
-4.39054e-12
-2.43524e-12
1.14318e-12
4.33845e-12
3.07443e-11
6.74657e-12
6.80174e-12
3.36742e-11
5.07615e-12
4.63892e-12
1.88431e-11
2.39839e-12
1.74028e-12
2.33546e-12
-2.38814e-13
-4.80393e-13
-4.27108e-13
-1.49017e-12
-1.21523e-13
5.43666e-14
2.19536e-13
-1.42979e-13
7.76577e-11
7.17363e-11
5.36658e-11
4.23317e-11
3.4132e-11
2.7631e-11
2.30081e-11
1.97008e-11
1.39842e-11
-8.96734e-12
-5.48539e-11
-1.2578e-10
-1.39377e-10
-2.71662e-11
4.97772e-12
2.25831e-12
2.08706e-13
1.24131e-13
-5.24086e-13
6.45401e-11
5.89402e-11
5.08955e-11
3.97537e-11
3.1409e-11
2.59549e-11
2.24875e-11
1.92484e-11
2.76037e-12
-4.88127e-11
-1.42598e-10
-2.61909e-10
-2.75536e-10
-6.41685e-11
2.46762e-12
3.27395e-12
3.94715e-13
1.16182e-13
-2.39626e-13
5.22177e-11
5.07452e-11
4.68299e-11
3.90052e-11
2.98413e-11
2.35832e-11
2.15693e-11
1.68191e-11
-1.97242e-11
-9.53738e-11
-2.15551e-10
-3.40261e-10
-3.13809e-10
-1.16418e-10
-1.71745e-11
3.70664e-12
1.13448e-12
1.22131e-13
-7.70175e-14
5.38452e-11
4.93797e-11
3.753e-11
3.56777e-11
3.06194e-11
2.27393e-11
1.99584e-11
9.90134e-12
-4.50883e-11
-1.31971e-10
-2.62397e-10
-3.94979e-10
-3.24468e-10
-1.59799e-10
-4.79147e-11
6.95872e-13
2.19784e-12
5.18553e-13
-2.1341e-12
5.97682e-11
3.68552e-11
5.77095e-12
1.51039e-11
2.84201e-11
2.48997e-11
2.04109e-11
3.44616e-12
-6.41883e-11
-1.53124e-10
-2.71832e-10
-4.24011e-10
-3.36461e-10
-1.76982e-10
-7.76176e-11
-7.50668e-12
1.979e-12
7.26329e-13
-4.66539e-12
6.3319e-11
3.93653e-12
-5.85007e-11
-4.31337e-11
7.14546e-12
2.17086e-11
1.6884e-11
-1.25328e-11
-1.02743e-10
-2.00557e-10
-2.8976e-10
-4.11988e-10
-3.40179e-10
-2.24002e-10
-1.06288e-10
-2.37047e-11
4.36337e-12
2.89535e-12
-1.79532e-11
5.90348e-11
-4.64294e-11
-1.48259e-10
-1.45428e-10
-4.54899e-11
1.60853e-11
2.60388e-11