/*--------------------------------*- C++ -*----------------------------------*\
| =========                 |                                                 |
| \\      /  F ield         | OpenFOAM: The Open Source CFD Toolbox           |
|  \\    /   O peration     | Version:  4.1                                   |
|   \\  /    A nd           | Web:      www.OpenFOAM.org                      |
|    \\/     M anipulation  |                                                 |
\*---------------------------------------------------------------------------*/
FoamFile
{
    version     2.0;
    format      ascii;
    class       volVectorField;
    location    "8";
    object      U;
}
// * * * * * * * * * * * * * * * * * * * * * * * * * * * * * * * * * * * * * //

dimensions      [0 1 -1 0 0 0 0];

internalField   nonuniform List<vector> 
1280
(
(7.67426e-18 3.72154 0.10479)
(3.09236e-17 5.31715 -2.11444)
(-4.64827e-17 5.2223 -1.92391)
(-2.44647e-17 5.45053 -1.77921)
(-1.76599e-17 7.7248 -4.43725)
(-8.18602e-18 6.8239 -3.62854)
(6.91895e-17 8.08465 -3.6422)
(-4.84001e-16 7.90026 -3.29654)
(7.4983e-16 10.6424 -6.44924)
(1.06994e-15 10.0226 -5.06233)
(1.04881e-15 10.9254 -4.47938)
(-2.46122e-15 14.1013 -9.07527)
(-2.64373e-15 13.2201 -7.43281)
(-1.99116e-15 14.7248 -6.82951)
(-7.11074e-15 18.5293 -12.5605)
(-5.52256e-15 17.5292 -9.77146)
(-4.60007e-15 20.1596 -9.17524)
(-3.85862e-15 20.4553 -17.899)
(-1.99028e-15 27.3291 -13.6859)
(-1.41941e-15 20.684 -14.9047)
(-1.01078e-14 25.2167 48.5327)
(-1.8194e-14 25.8365 68.231)
(-2.31589e-14 27.9816 76.8399)
(-2.74693e-14 30.7132 80.6288)
(-3.11496e-14 32.2195 82.6448)
(-3.37122e-14 35.8169 85.4118)
(-2.78522e-14 32.557 51.9476)
(-4.09437e-14 72.2541 107.101)
(-4.34563e-14 73.0906 108.427)
(-4.5568e-14 74.2024 109.124)
(-4.75173e-14 74.8243 109.831)
(-4.93943e-14 75.2768 110.675)
(-5.15154e-14 75.6096 111.845)
(-5.3966e-14 75.7508 113.444)
(-5.5751e-14 75.8079 115.485)
(-5.7872e-14 75.5247 117.844)
(-5.98868e-14 75.3766 120.442)
(-6.22785e-14 74.3543 122.843)
(-6.18586e-14 74.4736 125.489)
(-7.3954e-14 71.9323 124.409)
(-6.23156e-14 90.7085 140.497)
(-3.46635e-14 51.6949 100.918)
(-3.38154e-14 40.1736 101.296)
(-3.41686e-14 28.4293 98.1501)
(-3.10196e-14 13.1814 78.9513)
(-1.44808e-14 4.75575 24.9699)
(-8.6463e-15 1.30582 6.70732)
(-2.05854e-15 2.76296 -7.22834)
(9.64441e-15 1.03479 -30.1639)
(3.42917e-15 -1.01937 -23.3568)
(-8.1297e-15 2.2888 -22.789)
(-2.63462e-14 0.143276 -27.9156)
(-9.42079e-15 -2.09625 -6.24487)
(-1.7625e-15 -0.720999 7.11184)
(5.9496e-15 -4.15762 24.6677)
(2.19102e-14 -12.1839 76.2997)
(2.20433e-14 -26.8196 95.7729)
(2.16974e-14 -38.1961 99.9867)
(2.06625e-14 -49.8902 100.138)
(4.27717e-14 -90.8258 143.993)
(5.8394e-14 -69.8576 135.329)
(4.98144e-14 -71.5097 137.797)
(4.74969e-14 -70.8281 136.968)
(4.57423e-14 -71.2959 135.58)
(4.27695e-14 -70.8671 133.845)
(3.9846e-14 -70.6582 131.356)
(3.76025e-14 -70.0129 127.905)
(3.50524e-14 -69.2674 123.326)
(3.33499e-14 -68.2567 118.079)
(3.22426e-14 -67.1218 112.98)
(3.08909e-14 -65.9363 108.689)
(2.95552e-14 -64.7963 104.881)
(2.86337e-14 -62.8712 101.131)
(1.04234e-14 -28.798 49.5315)
(2.73538e-14 -28.2459 76.2409)
(2.40057e-14 -25.6372 72.7193)
(2.17835e-14 -25.2864 68.9989)
(2.0322e-14 -23.9397 64.0312)
(1.80125e-14 -22.439 56.846)
(9.99075e-15 -22.1428 44.2603)
(-8.2615e-16 -16.3824 -9.35877)
(-3.17332e-15 -24.4944 -10.7562)
(-5.22528e-15 -17.0943 -13.9119)
(-4.87557e-15 -19.0347 -8.08665)
(-4.91544e-15 -16.0889 -8.82338)
(-5.85224e-15 -18.1376 -10.791)
(-3.6684e-15 -14.5846 -6.31315)
(-3.37659e-15 -13.1038 -6.83357)
(-3.24305e-15 -14.2517 -8.35442)
(-1.73325e-15 -11.2418 -4.19291)
(-1.25765e-15 -10.3267 -4.66127)
(-3.94169e-16 -11.1637 -5.89803)
(1.53267e-16 -8.45547 -3.03383)
(3.47167e-16 -8.72221 -3.2029)
(3.1166e-16 -7.46228 -3.14024)
(2.53269e-16 -8.49689 -3.82338)
(8.78218e-17 -6.28118 -1.38635)
(-3.62469e-17 -6.05417 -1.51452)
(-1.56385e-16 -6.2205 -1.77864)
(1.03327e-16 -4.70552 0.114701)
(-8.62863e-15 11.5698 63.9521)
(-7.9707e-15 8.94389 57.9761)
(-5.96287e-15 -3.51738 45.6786)
(-4.70352e-15 -14.5207 39.5426)
(-3.79245e-15 -20.576 35.7841)
(-3.07011e-15 -22.3777 33.072)
(-2.55646e-15 -20.8402 30.8036)
(-2.18898e-15 -15.4687 28.3338)
(-1.5538e-15 -2.20536 22.0702)
(9.96371e-16 12.7937 9.82519)
(6.09488e-15 19.8509 3.21579)
(1.39756e-14 19.0451 -0.648436)
(1.54864e-14 -6.63361 -8.20653)
(3.01847e-15 -19.3556 -11.4512)
(-5.5308e-16 -17.3721 -8.74514)
(-2.50923e-16 -16.8097 -4.7116)
(-2.31896e-17 -17.7454 -6.06881)
(-1.37923e-17 -19.3406 -6.17213)
(5.82318e-17 -10.3432 -6.20265)
(-7.17112e-15 13.3679 54.6403)
(-6.54891e-15 14.8559 48.5707)
(-5.65505e-15 2.57566 41.0428)
(-4.41708e-15 -12.2381 36.0194)
(-3.48989e-15 -19.2006 34.5268)
(-2.88388e-15 -21.0527 33.2994)
(-2.49861e-15 -19.2391 31.762)
(-2.13871e-15 -11.879 28.4273)
(-3.06707e-16 5.85557 17.9566)
(5.42363e-15 17.7911 10.2275)
(1.58442e-14 23.041 9.50889)
(2.9101e-14 22.66 7.86724)
(3.06151e-14 -6.10426 -3.6843)
(7.12984e-15 -19.9926 -10.611)
(-2.7418e-16 -19.3349 -7.49221)
(-3.63772e-16 -17.6567 -3.53686)
(-4.38572e-17 -17.1823 -5.38419)
(-1.29091e-17 -19.4765 -6.10825)
(2.66251e-17 -12.0137 -6.337)
(-5.80196e-15 14.2518 46.4699)
(-5.63836e-15 15.398 43.16)
(-5.20332e-15 2.95127 39.3001)
(-4.33391e-15 -11.3613 34.3184)
(-3.3157e-15 -18.8443 33.1319)
(-2.62035e-15 -20.8568 33.2172)
(-2.39659e-15 -18.5624 33.0318)
(-1.86879e-15 -9.65299 29.4953)
(2.19158e-15 6.88594 20.0775)
(1.05971e-14 16.8889 19.0326)
(2.39502e-14 22.246 21.6011)
(3.78067e-14 23.7794 19.1986)
(3.48677e-14 -0.466128 8.76281)
(1.29354e-14 -18.2866 -8.20802)
(1.90828e-15 -20.3336 -5.86496)
(-4.11849e-16 -18.0327 -1.80491)
(-1.26054e-16 -16.3651 -4.50062)
(-1.35701e-17 -18.7814 -6.10902)
(8.5575e-18 -10.8614 -6.42398)
(-5.9828e-15 14.4836 46.7619)
(-5.48663e-15 17.1723 47.1629)
(-4.17e-15 5.77573 43.9499)
(-3.96419e-15 -9.9643 35.8719)
(-3.40216e-15 -18.737 32.9482)
(-2.52659e-15 -21.0888 33.3173)
(-2.2176e-15 -18.075 34.0096)
(-1.10015e-15 -7.08491 31.6569)
(5.00982e-15 8.61566 27.4841)
(1.46635e-14 16.6022 30.7931)
(2.91552e-14 23.285 34.2118)
(4.38865e-14 26.7969 32.338)
(3.6052e-14 7.19335 22.8577)
(1.77554e-14 -14.8265 -1.21674)
(5.32386e-15 -21.0635 -4.2813)
(-7.73191e-17 -18.4649 -0.394317)
(-2.44204e-16 -15.4279 -3.10214)
(-5.7617e-17 -19.6567 -5.29251)
(2.37122e-16 -13.2721 -7.17666)
(-6.64091e-15 13.958 50.0526)
(-4.09502e-15 16.8831 54.6318)
(-6.41216e-16 7.79089 53.5656)
(-1.67821e-15 -7.31794 43.6459)
(-3.15778e-15 -17.8383 36.1621)
(-2.76663e-15 -21.2695 34.686)
(-2.26788e-15 -18.0051 34.72)
(-3.82906e-16 -6.40712 34.4036)
(7.13203e-15 7.19993 35.8644)
(1.70138e-14 14.0383 40.0523)
(3.02036e-14 22.0105 43.6679)
(4.71123e-14 28.6666 46.776)
(3.73845e-14 14.1296 41.2936)
(1.96646e-14 -8.42817 14.6268)
(8.62417e-15 -19.9726 -0.175633)
(8.34075e-16 -18.7421 1.12531)
(-2.19889e-16 -13.7803 -2.51223)
(-8.07033e-17 -16.3009 -5.2781)
(5.18376e-16 -6.03872 -7.39519)
(-7.03545e-15 12.4009 56.0013)
(-4.37392e-16 15.8748 64.3035)
(6.50008e-15 9.83407 65.4319)
(4.79264e-15 -3.11356 56.6751)
(-7.9394e-16 -15.1338 44.7243)
(-2.41207e-15 -20.4035 39.6513)
(-1.876e-15 -18.1362 37.9487)
(1.39253e-15 -7.44194 38.5331)
(1.14159e-14 6.07063 41.8191)
(2.22841e-14 13.6796 46.1658)
(3.21955e-14 19.9051 48.9707)
(4.57765e-14 26.7967 61.846)
(3.77977e-14 19.5363 61.2837)
(2.48891e-14 1.25574 41.238)
(1.18097e-14 -15.0926 15.3998)
(2.63386e-15 -17.942 5.66987)
(-4.84818e-16 -12.865 -1.09133)
(-3.21705e-16 -21.3788 -3.8037)
(1.9948e-15 -16.8169 -11.2487)
(-6.55942e-15 10.2338 63.3329)
(5.15882e-15 13.5405 74.2101)
(1.64732e-14 10.5269 77.6894)
(1.61586e-14 1.18294 73.135)
(5.05443e-15 -11.2308 59.4697)
(-1.78726e-15 -18.4672 50.1736)
(-2.8932e-15 -17.6064 45.5774)
(2.52553e-15 -7.6149 44.7698)
(1.87493e-14 5.09434 49.989)
(3.11546e-14 11.1256 58.5627)
(3.4496e-14 16.6574 62.1504)
(3.64937e-14 23.5982 80.6355)
(3.33301e-14 22.5533 80.2209)
(2.9067e-14 9.94538 69.187)
(1.79131e-14 -5.69351 44.1355)
(7.96237e-15 -11.8498 22.1253)
(1.77448e-15 -8.54732 3.59754)
(-4.66444e-16 -5.6036 -2.17615)
(-7.45167e-15 11.3765 -53.2153)
(-5.41088e-15 7.52548 70.5387)
(1.0369e-14 10.5893 82.3116)
(2.59138e-14 9.93789 87.7382)
(3.13726e-14 4.47786 89.2594)
(1.95321e-14 -6.16579 79.5063)
(5.22401e-15 -14.7357 67.7244)
(1.00192e-15 -16.2236 60.1648)
(1.2292e-14 -9.54948 61.3109)
(3.04838e-14 0.041265 75.0379)
(2.82519e-14 6.71587 88.1916)
(1.50273e-14 12.1505 92.2072)
(1.19857e-14 21.155 94.0076)
(2.05197e-14 23.8294 96.708)
(2.75881e-14 15.6627 92.7955)
(2.60891e-14 3.83524 79.0442)
(2.11791e-14 -2.46264 63.3583)
(2.04638e-14 -3.6071 56.9076)
(2.33722e-14 -11.0501 62.6154)
(3.02895e-14 -48.6908 88.7911)
(-4.57442e-15 4.87554 75.9296)
(1.16039e-14 7.20649 87.2548)
(2.87298e-14 7.47221 94.0006)
(4.3233e-14 4.51837 101.57)
(4.5617e-14 -2.84408 101.017)
(3.65755e-14 -10.6676 93.5035)
(2.98611e-14 -14.8548 85.5956)
(2.93414e-14 -12.6933 84.4815)
(1.74548e-14 -4.7047 91.5847)
(-1.12161e-14 4.93652 97.6277)
(-2.60341e-14 13.2222 98.8083)
(-2.08342e-14 20.704 101.249)
(-4.17392e-15 22.8482 106.272)
(1.45292e-14 16.5928 108.961)
(2.64782e-14 5.83816 107.01)
(2.96514e-14 -2.35731 103.744)
(3.29751e-14 -7.50765 105.161)
(3.58617e-14 -14.5687 107.618)
(3.49142e-14 -26.5809 100.924)
(-5.16331e-15 2.28728 78.7411)
(6.32941e-15 3.91592 89.3701)
(1.95995e-14 3.96303 96.4517)
(3.56886e-14 1.76582 107.102)
(4.78799e-14 -3.07306 113.616)
(4.87224e-14 -8.69091 114.167)
(3.71618e-14 -12.7413 109.768)
(1.24965e-14 -12.1317 104.262)
(-2.50767e-14 -5.5254 99.6457)
(-5.35047e-14 3.69382 95.0583)
(-5.3766e-14 11.7958 92.5913)
(-4.62269e-14 18.7854 95.7502)
(-3.26739e-14 20.7973 104.48)
(-1.48567e-14 15.4534 112.523)
(4.59335e-15 5.77422 114.469)
(1.31246e-14 -1.69875 112.532)
(1.65746e-14 -5.74667 107.415)
(1.75338e-14 -11.0814 89.5451)
(1.00458e-14 -20.2469 50.0821)
(-7.97792e-15 -0.121003 77.9116)
(-6.83174e-15 0.701444 88.8877)
(-4.038e-15 0.12833 95.579)
(1.42293e-15 -2.19456 106.6)
(7.22964e-15 -5.68391 115.863)
(6.73724e-15 -9.15074 121.304)
(-5.80575e-15 -10.9507 118.987)
(-2.92255e-14 -8.55874 107.155)
(-4.74309e-14 -0.91032 88.321)
(-4.45914e-14 7.45127 72.6568)
(-3.93326e-14 12.4896 68.4088)
(-4.12281e-14 15.7909 74.5348)
(-4.38933e-14 15.9946 88.5941)
(-4.03981e-14 12.6169 105.05)
(-3.06255e-14 6.00873 113.787)
(-2.43619e-14 0.770182 113.853)
(-2.55597e-14 1.29729 108.473)
(-2.89037e-14 8.4099 89.5557)
(-2.45805e-14 19.6354 49.2211)
(-8.94184e-15 -2.90838 73.1407)
(-1.41853e-14 -2.55436 85.7788)
(-1.87436e-14 -3.40127 92.4162)
(-2.29978e-14 -6.23246 103.261)
(-2.78913e-14 -9.00773 112.864)
(-3.50278e-14 -9.94331 116.842)
(-4.13419e-14 -6.98719 106.645)
(-3.74303e-14 0.398619 80.5364)
(-2.27288e-14 8.16856 52.5939)
(-1.37106e-14 11.2706 39.474)
(-1.55119e-14 11.092 39.0928)
(-2.42481e-14 10.5671 47.6164)
(-3.4777e-14 8.60541 62.565)
(-4.25411e-14 5.30761 80.8903)
(-4.53152e-14 1.75656 98.8537)
(-4.50044e-14 0.273105 108.227)
(-4.79157e-14 4.0568 113.614)
(-5.10418e-14 13.7277 113.416)
(-4.92993e-14 27.6618 104.506)
(-7.32929e-15 -5.97968 65.3166)
(-1.49323e-14 -6.40263 79.7412)
(-2.40494e-14 -7.14542 87.1607)
(-3.43968e-14 -10.2693 97.5841)
(-4.28886e-14 -11.1115 104.461)
(-4.28208e-14 -6.63679 99.4376)
(-2.7355e-14 3.52475 75.7749)
(-7.27253e-15 12.6962 47.7011)
(1.45107e-15 15.2465 30.668)
(1.82214e-15 13.0051 24.0071)
(-1.65179e-15 9.36882 24.2019)
(-9.47488e-15 6.44568 29.0819)
(-2.10146e-14 2.80975 39.3968)
(-2.96478e-14 -1.4997 49.0606)
(-3.45162e-14 -4.34155 58.7244)
(-3.3799e-14 -4.40649 63.0044)
(-3.11694e-14 -1.29288 59.4639)
(-3.35466e-14 9.86598 61.1417)
(-4.63088e-14 49.048 88.2604)
(-4.81235e-15 -9.46385 55.7765)
(-1.187e-14 -10.7429 70.9062)
(-2.19937e-14 -10.7359 79.5647)
(-3.32649e-14 -13.0375 88.8299)
(-3.73017e-14 -9.75814 90.173)
(-2.44682e-14 1.317 74.5422)
(-4.81685e-15 13.6989 50.2991)
(3.22104e-15 19.0175 34.5183)
(3.45196e-15 18.0459 26.0243)
(2.19541e-15 13.8438 22.2579)
(8.84994e-16 9.11243 20.6165)
(-2.29461e-15 4.85949 19.8316)
(-9.77999e-15 0.515823 23.2687)
(-1.72352e-14 -2.69836 26.7946)
(-2.12168e-14 -3.80618 26.9497)
(-1.79539e-14 0.0311177 19.4507)
(-9.7496e-15 4.82934 0.632695)
(-3.57544e-15 5.32929 -6.69679)
(5.59277e-15 -8.83456 -42.8051)
(-2.55445e-15 -12.6355 46.4071)
(-7.78153e-15 -15.4571 60.1625)
(-1.60984e-14 -14.4704 69.8385)
(-2.4575e-14 -14.5275 77.3371)
(-2.25757e-14 -5.53979 72.6006)
(-6.97274e-15 9.37535 52.4631)
(2.3606e-15 19.6274 37.0058)
(3.37494e-15 22.3455 29.3012)
(2.2842e-15 19.9319 24.9497)
(1.84546e-15 15.0649 22.1346)
(1.56422e-15 10.1149 18.7832)
(2.24927e-16 5.48784 15.5194)
(-3.30924e-15 0.204518 13.2935)
(-7.65037e-15 -2.49027 12.4728)
(-9.48678e-15 -1.46466 7.9544)
(-6.87155e-15 4.86123 0.575989)
(-3.62975e-15 8.81692 -8.27576)
(-1.27912e-15 17.6845 -9.14556)
(5.63103e-16 14.0647 -19.9489)
(-9.027e-16 -15.4786 39.606)
(-4.42569e-15 -19.7618 48.8812)
(-9.82357e-15 -17.5378 58.7701)
(-1.45831e-14 -14.1646 64.6618)
(-9.53203e-15 0.335477 55.8617)
(6.71073e-16 15.2544 38.5802)
(3.57226e-15 23.0202 30.5928)
(2.80467e-15 23.9058 26.9187)
(1.93644e-15 20.9627 24.2839)
(1.83736e-15 16.3071 21.5024)
(1.78609e-15 11.8 17.3866)
(1.31921e-15 7.05109 12.6937)
(4.19982e-17 1.18766 6.54927)
(-2.54665e-15 -1.05729 4.31038)
(-3.32166e-15 0.863773 -0.214067)
(-2.26124e-15 6.98942 -4.76375)
(-1.46241e-15 9.66258 -10.404)
(-4.66227e-16 14.821 -9.69913)
(3.04704e-16 5.34416 -11.9435)
(4.72988e-16 -16.5136 37.8744)
(-2.30771e-15 -22.9992 40.3347)
(-5.16171e-15 -20.8677 48.5168)
(-7.06449e-15 -13.8929 52.4168)
(-1.85501e-15 5.3826 42.3596)
(3.33066e-15 19.0461 31.3484)
(3.84986e-15 24.5745 28.2107)
(2.75351e-15 24.8673 25.9585)
(2.08303e-15 22.0988 23.3484)
(1.979e-15 17.7878 20.2602)
(1.84025e-15 13.6906 16.4709)
(1.52579e-15 9.67913 11.9488)
(1.09878e-15 3.91022 5.56584)
(6.74966e-18 0.225599 -0.413792)
(-7.26286e-16 2.24238 -3.30519)
(-5.17727e-16 8.59679 -5.6723)
(-3.51208e-16 10.6418 -9.59697)
(-7.80573e-17 16.1479 -7.6215)
(5.63643e-18 11.0498 -8.66294)
(2.21158e-15 -16.6305 41.9557)
(-9.39173e-16 -23.8277 35.9535)
(-2.47639e-15 -21.8914 40.1979)
(-2.72068e-15 -11.6935 42.2513)
(1.80407e-15 9.12248 34.7143)
(4.56578e-15 20.7436 29.4624)
(4.08022e-15 25.272 28.0922)
(2.90907e-15 25.7984 25.5144)
(2.22734e-15 23.268 22.4275)
(2.02217e-15 19.0548 19.3941)
(1.89138e-15 15.1173 16.1978)
(1.58513e-15 11.4763 12.3963)
(1.19803e-15 6.54377 7.10965)
(8.42406e-16 2.44757 0.174138)
(3.29522e-16 3.02167 -3.63854)
(1.15131e-16 9.46556 -4.76341)
(-6.91758e-18 10.839 -7.34171)
(-7.46872e-17 14.9419 -6.74643)
(-1.05469e-16 8.92055 -7.26475)
(5.21774e-15 -14.0128 53.8233)
(1.2004e-15 -22.6586 41.7293)
(-5.3425e-16 -24.0504 39.0559)
(-1.36248e-17 -12.8864 37.1252)
(4.08423e-15 9.90172 32.3559)
(5.23823e-15 21.5769 30.6039)
(4.27856e-15 26.1809 28.5409)
(3.12279e-15 26.9692 25.1639)
(2.31684e-15 24.353 21.9134)
(2.02137e-15 20.0069 19.13)
(1.92673e-15 16.1756 16.23)
(1.6559e-15 12.8311 12.684)
(1.25323e-15 8.24151 8.21084)
(8.71552e-16 4.08798 2.94349)
(5.49171e-16 3.6009 -1.40545)
(1.75355e-16 10.0722 -2.76031)
(-6.039e-17 11.3508 -5.80203)
(-8.17509e-17 15.4062 -6.08951)
(-4.6958e-17 10.1203 -6.73112)
(8.97607e-15 -11.5505 69.4157)
(7.0919e-15 -17.3968 62.4751)
(5.06356e-15 -18.5867 53.6405)
(4.63964e-15 -7.27264 44.4227)
(5.57786e-15 12.5139 36.2202)
(5.4074e-15 22.9984 32.2927)
(4.47226e-15 28.0432 28.6223)
(3.30423e-15 28.931 24.9537)
(2.3909e-15 26.1652 21.8136)
(2.03888e-15 21.7887 19.2019)
(1.95977e-15 18.2374 16.4165)
(1.71083e-15 15.3497 13.0659)
(1.30703e-15 11.2729 9.14029)
(9.03355e-16 7.36442 4.77939)
(5.29426e-16 5.96714 0.404122)
(1.4462e-16 11.8126 -2.02987)
(-6.69444e-17 12.4752 -5.3473)
(-7.54852e-17 15.5499 -5.93913)
(-5.23129e-17 8.56146 -6.59997)
(-1.256e-16 94.8507 160.721)
(-3.08208e-14 140.416 236.226)
(-2.96729e-14 149.902 243.958)
(-2.81704e-14 147.368 233.892)
(-2.79505e-14 141.586 218.452)
(-3.44516e-14 134.096 200.99)
(-3.96155e-14 125.211 183.046)
(-4.10911e-14 117.937 169.113)
(-4.13109e-14 111.465 156.59)
(-4.26122e-14 105.321 145.387)
(-4.50816e-14 99.5534 135.375)
(-4.85198e-14 94.1555 126.48)
(-5.24075e-14 89.0047 118.688)
(-5.6293e-14 84.0928 111.798)
(-5.84526e-14 79.0706 105.585)
(-6.25214e-14 73.9242 99.5331)
(-6.85981e-14 67.8175 93.0873)
(-7.46539e-14 60.8387 85.3093)
(-8.16897e-14 50.1157 72.7945)
(-1.29635e-13 30.4028 47.7704)
(-5.13455e-16 98.2273 165.632)
(-2.46331e-14 140.834 238.867)
(-1.963e-14 144.905 242.95)
(-1.89334e-14 138.304 230.535)
(-1.97363e-14 127.946 212.181)
(-3.04614e-14 116.883 192.735)
(-2.84618e-14 107.471 176.63)
(-2.79141e-14 99.9733 162.689)
(-2.8871e-14 93.1518 150.606)
(-3.28292e-14 87.1649 139.266)
(-3.49647e-14 81.2709 128.712)
(-3.89373e-14 75.7679 118.564)
(-4.28294e-14 70.2103 109.033)
(-4.53409e-14 64.9105 99.8031)
(-4.83004e-14 59.2337 91.006)
(-5.41444e-14 53.6975 81.8647)
(-6.24958e-14 46.6737 72.342)
(-6.99332e-14 39.7408 60.4691)
(-8.39184e-14 25.4176 41.7797)
(-1.59604e-13 6.79944 5.0715)
(7.50438e-17 108.911 186.91)
(-8.38387e-15 150.185 255.088)
(-6.01436e-15 149.455 253.425)
(-6.24886e-15 140.688 237.239)
(-5.63297e-15 128.258 216.831)
(-1.82247e-14 117.317 197.18)
(-1.14502e-14 108.291 182.565)
(-1.10771e-14 101.704 169.737)
(-1.25875e-14 94.7905 158.322)
(-1.41764e-14 88.884 146.741)
(-1.32521e-14 82.3554 135.833)
(-1.45412e-14 76.5669 124.822)
(-1.73365e-14 70.3365 114.45)
(-1.87642e-14 64.7342 104.053)
(-2.13156e-14 58.5857 94.1562)
(-2.25513e-14 52.9446 83.7122)
(-2.6486e-14 45.7696 72.9846)
(-3.04657e-14 38.9566 59.9974)
(-4.96886e-14 23.7809 38.2287)
(-8.4043e-14 9.65019 10.4055)
(2.15013e-17 114.909 197.216)
(2.11892e-15 151.057 257.716)
(1.68178e-15 146.328 250.718)
(1.6012e-15 136.455 232.956)
(1.55252e-15 123.367 212.39)
(-1.14183e-14 113.456 193.909)
(-8.4915e-15 105.023 181.168)
(-9.90559e-15 98.8643 168.511)
(-1.15696e-14 91.3024 157.193)
(-1.28942e-14 85.3903 145.203)
(-1.214e-14 78.2267 134.277)
(-1.40726e-14 72.5144 122.999)
(-1.4839e-14 65.9414 112.702)
(-1.82275e-14 60.5667 102.143)
(-1.95683e-14 54.3289 92.255)
(-1.8859e-14 48.9096 81.3674)
(-2.3189e-14 41.464 69.8927)
(-2.73574e-14 33.8136 54.4233)
(-7.24555e-14 13.2915 23.5836)
(-3.02146e-13 -2.26451 -10.7172)
(-1.91487e-17 120.686 208.082)
(-5.23299e-16 151.173 259.081)
(-4.58942e-16 144.435 249.065)
(-4.25687e-16 134.595 231.153)
(-4.42466e-16 122.072 211.576)
(2.79778e-15 113.088 194.277)
(2.52222e-15 104.804 182.063)
(2.70078e-15 98.5758 169.224)
(3.05705e-15 90.8002 157.879)
(3.41463e-15 84.9142 145.916)
(3.27979e-15 77.7557 135.191)
(3.65366e-15 72.2323 124.251)
(4.2687e-15 65.8846 114.381)
(4.60046e-15 60.7572 104.335)
(5.17885e-15 54.7929 94.8285)
(5.4806e-15 49.3435 84.1993)
(6.55543e-15 41.8733 72.2892)
(7.92273e-15 32.4961 54.8469)
(-1.18254e-14 10.6245 19.8563)
(-2.3862e-13 -3.95078 -7.60084)
(8.94014e-18 123.004 212.449)
(1.29223e-16 149.986 258.36)
(1.201e-16 143.124 247.106)
(1.13763e-16 133.333 229.275)
(1.24556e-16 121.464 210.331)
(-7.00866e-16 112.754 193.574)
(-7.0643e-16 104.623 181.291)
(-7.10365e-16 98.2498 168.519)
(-7.80596e-16 90.7267 157.077)
(-8.65013e-16 84.6873 145.335)
(-8.71325e-16 77.8863 134.619)
(-1.02042e-15 72.2048 123.993)
(-1.11741e-15 66.1294 114.111)
(-1.1312e-15 60.67 104.214)
(-1.34281e-15 54.673 94.3861)
(-1.46654e-15 48.4811 83.4888)
(-1.7157e-15 40.5453 70.5338)
(-1.79917e-15 29.3502 51.3219)
(-1.39184e-14 8.62666 16.2928)
(-8.84349e-14 -2.06691 -1.90699)
(-3.35221e-18 123.491 213.503)
(-3.12481e-17 151.433 261.144)
(-3.04493e-17 144.493 248.499)
(-2.9894e-17 134.209 229.507)
(-3.4376e-17 122.617 210.641)
(1.64722e-16 114.174 194.222)
(1.88562e-16 106.3 181.812)
(1.8741e-16 99.8634 169.135)
(1.97463e-16 92.6645 157.457)
(2.1879e-16 86.4075 145.783)
(2.30947e-16 79.8848 134.835)
(2.67572e-16 73.8874 124.166)
(2.82334e-16 67.8067 113.886)
(2.88308e-16 61.8078 103.632)
(3.39204e-16 55.4508 93.1159)
(3.72558e-16 48.5282 81.6535)
(4.28489e-16 40.1613 68.0239)
(4.8104e-16 29.1638 49.7605)
(2.07614e-15 12.1462 20.6941)
(-4.61429e-15 1.35774 0.735433)
(1.11005e-18 124.166 214.087)
(7.39161e-18 156.637 268.452)
(7.57437e-18 148.031 252.801)
(7.64645e-18 136.882 231.099)
(9.07167e-18 125.229 212.258)
(-3.49981e-17 117.517 196.164)
(-4.75739e-17 109.867 183.637)
(-4.85846e-17 103.515 170.75)
(-4.95629e-17 96.5524 158.659)
(-5.42943e-17 90.1639 146.655)
(-5.90252e-17 83.6586 135.133)
(-6.64291e-17 77.2729 123.831)
(-6.99905e-17 70.7462 112.67)
(-7.30186e-17 64.0127 101.436)
(-8.29755e-17 56.8221 89.8481)
(-9.20366e-17 49.0153 77.3925)
(-1.03754e-16 39.803 63.1061)
(-1.16719e-16 28.7687 45.2507)
(-4.62412e-16 12.3259 19.2027)
(9.89635e-15 -1.07559 -6.57887)
(-3.22591e-19 129.331 222.408)
(-1.71301e-18 165.877 279.888)
(-1.83879e-18 152.908 259.896)
(-1.87762e-18 141.729 234.966)
(-2.4408e-18 130.036 217.233)
(6.63314e-18 123.855 201.546)
(1.12172e-17 116.457 189.013)
(1.21932e-17 110.62 175.715)
(1.23561e-17 104.055 163.077)
(1.31417e-17 97.7701 150.195)
(1.42817e-17 91.0992 137.352)
(1.57891e-17 84.0979 124.344)
(1.68833e-17 76.6066 111.179)
(1.7826e-17 68.6192 97.7701)
(1.97161e-17 59.912 84.0024)
(2.20828e-17 50.4961 69.4002)
(2.50921e-17 39.3976 53.2576)
(3.44479e-17 26.8954 33.8869)
(-2.00838e-16 7.94883 7.47417)
(5.32337e-15 -5.05054 -20.1235)
(8.13054e-20 141.544 245.672)
(3.87319e-19 175.822 291.256)
(4.34955e-19 155.781 267.456)
(4.40059e-19 147.602 242.038)
(6.34173e-19 136.093 227.89)
(-1.1089e-18 132.291 212.986)
(-2.43907e-18 125.122 201.314)
(-2.91007e-18 120.652 188.183)
(-2.99915e-18 114.628 175.382)
(-3.09355e-18 108.519 161.016)
(-3.28218e-18 101.036 145.644)
(-3.58142e-18 92.6064 129.223)
(-3.88164e-18 83.1603 112.238)
(-4.14482e-18 72.9348 94.7845)
(-4.51967e-18 61.6439 76.9201)
(-5.09458e-18 49.4186 58.0662)
(-5.36584e-18 34.7823 37.9303)
(-1.3537e-17 19.2661 14.8859)
(-1.70966e-18 -4.69147 -12.8454)
(1.03609e-15 -16.4443 -44.5629)
(-2.00389e-20 155.168 276.291)
(-8.73724e-20 176.936 291.407)
(-1.01751e-19 151.965 269.828)
(-1.00869e-19 149.834 249.717)
(-1.55461e-19 137.564 239.94)
(1.86022e-19 135.861 226.517)
(5.15894e-19 128.331 217.753)
(6.66611e-19 125.461 206.315)
(7.03282e-19 118.545 194.131)
(7.13373e-19 110.935 177.301)
(7.38061e-19 99.8637 157.769)
(8.00316e-19 87.5501 136.097)
(8.91875e-19 73.8044 113.812)
(9.41952e-19 59.2496 90.7584)
(8.92425e-19 43.2515 66.7446)
(1.18037e-18 25.9931 41.0361)
(2.01067e-18 5.26112 13.1329)
(1.35285e-18 -13.4221 -20.2047)
(-1.7882e-17 -34.749 -42.4342)
(-5.37219e-16 -32.5644 -74.4882)
(4.88632e-21 156.993 287.118)
(2.08774e-20 163.514 273.221)
(2.40204e-20 141.551 261.466)
(2.54959e-20 140.958 245.448)
(3.45868e-20 127.171 237.298)
(-4.76545e-20 124.731 225.731)
(-1.28445e-19 115.846 219.482)
(-1.63467e-19 111.605 209.255)
(-1.69975e-19 100.793 195.913)
(-1.74744e-19 88.3559 174.568)
(-1.85419e-19 71.2886 149.447)
(-1.56938e-19 54.1766 122.482)
(-1.13157e-19 36.2879 96.0103)
(-5.06553e-19 18.4119 68.9707)
(-1.25291e-18 0.0639438 41.3711)
(1.034e-18 -16.9061 15.2414)
(5.60431e-18 -30.6559 -7.775)
(-1.99841e-17 -39.9752 -28.6777)
(-1.38393e-16 -39.0371 -36.609)
(-2.95378e-16 -15.6161 -16.4867)
(-1.2754e-21 145.231 267.993)
(-5.00576e-21 151.548 255.07)
(-5.81099e-21 130.227 243.939)
(-6.87081e-21 128.201 226.308)
(-6.00543e-21 112.92 217.857)
(1.58458e-20 108.735 205.329)
(3.51519e-20 97.7348 198.315)
(4.21045e-20 90.5466 187.245)
(4.15916e-20 77.1822 172.905)
(3.5006e-20 62.2471 151.189)
(3.9748e-20 44.2142 126.091)
(1.2853e-19 26.7871 99.7649)
(2.15084e-19 9.84122 74.4127)
(-3.69589e-19 -5.22385 50.8113)
(-1.90192e-18 -16.6531 31.5144)
(-1.60731e-18 -20.1544 21.9616)
(4.80952e-18 -10.5722 30.6039)
(1.50035e-17 14.5006 60.076)
(1.93024e-17 45.6716 94.9471)
(1.46099e-17 45.2925 92.6432)
(3.12554e-22 137.424 254.704)
(1.16726e-21 151.561 247.159)
(1.38249e-21 125.577 232.857)
(1.69666e-21 127.357 210.553)
(9.98998e-22 109.228 201.669)
(-4.62572e-21 107.116 183.919)
(-9.16456e-21 93.7792 173.884)
(-1.0266e-20 87.8478 159.586)
(-9.89498e-21 76.2182 146.683)
(-1.32212e-20 66.2878 129.529)
(-2.3816e-20 54.2424 110.909)
(-1.09427e-20 43.5823 90.9141)
(1.05959e-19 34.3255 72.6032)
(3.16895e-19 29.6102 60.0481)
(3.63002e-19 32.3381 59.319)
(3.65784e-21 43.2265 71.6995)
(-8.11749e-19 56.7445 89.1844)
(-2.35478e-18 66.7818 106.396)
(-4.40998e-18 72.1291 112.008)
(-4.33474e-18 52.4865 92.6591)
(-6.94236e-23 138.385 258.701)
(-2.61843e-22 158.473 251.995)
(-3.13618e-22 128.998 237.918)
(-3.87057e-22 134.427 213.613)
(-2.86116e-22 115.757 205.218)
(9.28092e-22 115.783 186.293)
(2.05376e-21 103.344 175.036)
(2.41687e-21 99.017 159.677)
(2.29065e-21 90.6081 147.671)
(2.40895e-21 85.3379 135.348)
(4.1977e-21 79.7797 124.494)
(6.15238e-21 75.546 113.888)
(-2.11117e-21 71.7936 103.535)
(-3.07673e-20 68.4792 93.1637)
(-6.99245e-20 65.3174 83.2377)
(-8.8081e-20 62.1214 75.2092)
(-3.27142e-20 58.6729 70.219)
(1.9376e-19 54.5069 67.5472)
(7.40115e-19 44.9006 60.6773)
(1.46713e-18 25.3868 34.9764)
(1.54929e-23 142.314 269.728)
(5.89171e-23 163.361 256.352)
(6.9544e-23 132.044 245.549)
(8.48034e-23 139.861 221.668)
(7.14859e-23 121.003 213.544)
(-1.7668e-22 121.467 195.724)
(-4.31252e-22 110.552 184.759)
(-5.30092e-22 106.451 170.611)
(-5.10544e-22 99.4056 158.462)
(-4.77555e-22 93.934 145.848)
(-6.8242e-22 88.218 133.978)
(-1.19319e-21 82.9443 122.551)
(-8.2268e-22 77.7752 111.586)
(2.67477e-21 72.6124 100.584)
(9.8671e-21 66.6319 88.9639)
(1.81641e-20 59.5724 75.7863)
(2.20952e-20 49.739 61.0382)
(8.34359e-21 39.2409 44.9937)
(-7.25241e-20 19.8759 23.0667)
(-1.22542e-19 1.44175 -14.6131)
(-3.31395e-24 142.653 277.944)
(-1.3571e-23 163.549 254.099)
(-1.67667e-23 130.412 249.346)
(-2.05604e-23 140.812 226.047)
(-2.11666e-23 120.81 218.894)
(3.1397e-23 121.863 201.942)
(9.06607e-23 111.01 191.823)
(1.19982e-22 107.422 178.645)
(1.23429e-22 100.707 167.588)
(1.12509e-22 95.9551 155.902)
(1.19831e-22 90.782 144.845)
(1.80072e-22 86.2122 133.774)
(1.95462e-22 81.4319 122.554)
(-1.1204e-22 75.982 109.811)
(-9.40355e-22 68.0474 94.0351)
(-2.21085e-21 56.978 73.258)
(-3.61503e-21 40.4691 47.8998)
(-5.69902e-21 24.5136 23.6336)
(5.7152e-22 -2.62298 -3.49297)
(-2.38259e-19 -15.0337 -43.0243)
(9.44222e-25 134.383 275.116)
(3.20825e-24 158.923 248.558)
(3.27311e-24 122.854 247.018)
(3.72132e-24 130.869 226.592)
(1.15094e-24 112.558 219.346)
(-1.23923e-23 110.411 205.29)
(-2.2871e-23 100.568 195.65)
(-2.34271e-23 95.5782 184.326)
(-1.87295e-23 88.9299 174.41)
(-1.90934e-23 83.9279 164.392)
(-3.88655e-23 78.9575 155.126)
(-7.49423e-23 74.6792 145.914)
(-7.10748e-23 69.9027 135.713)
(7.2239e-23 63.2282 121.68)
(4.46924e-22 52.175 100.253)
(1.22139e-21 34.9805 67.6354)
(2.30658e-21 6.7538 19.6018)
(2.44326e-22 -23.8266 -44.4627)
(-1.21562e-20 -31.9269 -42.1214)
(-1.22814e-19 -26.1589 -57.3304)
(-2.28013e-25 109.399 255.542)
(-9.14623e-25 148.488 227.003)
(-1.40516e-24 108.284 229.957)
(-1.62884e-24 113.878 215.174)
(-2.2821e-25 97.8353 209.697)
(2.5763e-24 92.7877 200.4)
(4.37572e-24 83.7023 193.16)
(5.34727e-24 77.2113 185.301)
(5.76829e-24 70.3962 177.933)
(4.41733e-24 64.4918 170.617)
(-2.26181e-25 58.9603 163.566)
(-7.87932e-24 53.8363 156.448)
(-1.6585e-23 48.4997 148.335)
(-2.26202e-23 42.0115 137.265)
(2.61226e-23 33.288 120.659)
(4.05632e-22 21.7053 96.596)
(1.69821e-21 8.16216 64.9861)
(3.5107e-21 -4.47025 28.2037)
(7.93154e-22 -13.7119 -4.42827)
(-1.31422e-20 -13.4768 -20.7244)
(9.28331e-26 35.9315 158.06)
(1.90197e-25 78.3777 130.737)
(9.19894e-26 52.6895 138.899)
(-2.37647e-25 52.5097 134.891)
(-7.52544e-25 43.9859 134.941)
(-1.21617e-24 39.5415 133.376)
(-1.40303e-24 34.4493 132.196)
(-1.26743e-24 30.4352 130.67)
(-7.23012e-25 26.8096 129.033)
(-2.79277e-26 23.8092 127.192)
(-5.15931e-25 21.3639 125.242)
(-4.82752e-24 19.5968 123.339)
(-1.51244e-23 18.6306 121.74)
(-3.00978e-23 18.6113 120.578)
(-4.83089e-23 19.7263 119.511)
(-8.22363e-23 21.7935 117.802)
(-1.56477e-22 24.3087 114.555)
(-2.45609e-22 29.5342 106.87)
(-2.13642e-22 33.3454 92.1987)
(8.20784e-24 8.11535 67.46)
(-6.25342e-26 -35.9327 158.058)
(2.57434e-25 -78.3772 130.742)
(7.84451e-25 -52.6902 138.905)
(1.36368e-24 -52.5097 134.899)
(1.86435e-24 -43.9861 134.95)
(2.21361e-24 -39.5416 133.386)
(2.34473e-24 -34.4497 132.206)
(2.21774e-24 -30.4365 130.68)
(1.96997e-24 -26.8127 129.045)
(2.03817e-24 -23.8149 127.206)
(2.80414e-24 -21.3704 125.252)
(3.61383e-24 -19.5984 123.334)
(2.35815e-24 -18.6189 121.703)
(-2.22042e-24 -18.5814 120.506)
(-5.94438e-24 -19.683 119.423)
(4.82621e-25 -21.7494 117.731)
(1.95534e-23 -24.2742 114.517)
(3.62933e-23 -29.5108 106.851)
(3.35473e-23 -33.3318 92.1871)
(1.57282e-23 -8.11444 67.4553)
(3.60877e-25 -109.407 255.573)
(3.35543e-25 -148.511 227.017)
(-1.49692e-25 -108.298 229.972)
(-1.0923e-24 -113.902 215.179)
(-2.31714e-24 -97.8573 209.695)
(-3.63238e-24 -92.8163 200.389)
(-4.84642e-24 -83.7347 193.141)
(-5.69014e-24 -77.25 185.274)
(-5.73353e-24 -70.4397 177.896)
(-4.81127e-24 -64.5394 170.565)
(-3.43843e-24 -59.0122 163.495)
(-1.07829e-24 -53.9034 156.375)
(7.17173e-24 -48.6074 148.306)
(2.61186e-23 -42.1857 137.342)
(3.63947e-23 -33.5166 120.854)
(-2.66569e-23 -21.9154 96.8144)
(-2.19563e-22 -8.25953 65.0994)
(-4.68456e-22 4.49016 28.1674)
(-6.60369e-22 13.7816 -4.5731)
(-9.11326e-22 13.5303 -20.8208)
(-1.1451e-24 -134.335 275.034)
(1.25711e-25 -158.897 248.478)
(2.07992e-24 -122.81 246.922)
(4.31909e-24 -130.835 226.477)
(6.66286e-24 -112.518 219.225)
(8.86098e-24 -110.372 205.156)
(1.04211e-23 -100.526 195.507)
(1.11994e-23 -95.5333 184.173)
(1.2218e-23 -88.8809 174.244)
(1.55175e-23 -83.8665 164.203)
(2.24922e-23 -78.8783 154.906)
(2.95912e-23 -74.5899 145.68)
(2.92927e-23 -69.8474 135.538)
(1.93365e-23 -63.2817 121.689)
(-4.27685e-24 -52.391 100.538)
(-8.94586e-23 -35.3546 68.1744)
(-1.59654e-22 -7.19842 20.3307)
(9.65855e-22 23.8484 -44.587)
(5.29939e-22 31.7481 -42.027)
(-4.01905e-21 26.0973 -57.0485)
(4.98895e-24 -142.649 277.991)
(2.2304e-24 -163.502 254.028)
(-3.37663e-24 -130.369 249.349)
(-1.11916e-23 -140.791 226.041)
(-2.0426e-23 -120.743 218.902)
(-3.04696e-23 -121.814 201.941)
(-4.03587e-23 -110.926 191.83)
(-5.03432e-23 -107.338 178.646)