/*--------------------------------*- C++ -*----------------------------------*\
| =========                 |                                                 |
| \\      /  F ield         | OpenFOAM: The Open Source CFD Toolbox           |
|  \\    /   O peration     | Version:  4.1                                   |
|   \\  /    A nd           | Web:      www.OpenFOAM.org                      |
|    \\/     M anipulation  |                                                 |
\*---------------------------------------------------------------------------*/
FoamFile
{
    version     2.0;
    format      ascii;
    class       surfaceScalarField;
    location    "17";
    object      phi;
}
// * * * * * * * * * * * * * * * * * * * * * * * * * * * * * * * * * * * * * //

dimensions      [0 3 -1 0 0 0 0];

internalField   nonuniform List<scalar> 
2360
(
44369.9
49195
-4825.09
49195
49195
55835.4
-6640.34
55835.4
55835.4
55835.4
66077.6
-10242.2
66077.6
66077.6
80681.5
-14603.9
80681.5
80681.5
103929
-23247.6
103929
103929
135308
-31379.2
135308
135308
141954
155295
170423
185110
198689
211129
166957
55906.7
177823
187924
197334
206115
214313
221960
229081
235685
241780
247397
252630
257473
261401
120400
141001
120400
120400
120400
23900
96500.3
23900
23900
23900
-5192.46
29092.5
-5192.45
-5192.46
-27529.7
22337.2
-27529.7
-27529.7
-27529.7
-102286
74756.5
-102286
-102286
-102286
-229605
127319
-223361
-215238
-206718
-198402
-190315
-182299
-174178
-165845
-157228
-148287
-139015
-129445
-119622
-183912
74266.8
-173808
-163322
-152378
-141051
-129837
-121872
-121872
-121872
-80641
-41231
-80641
-80641
-38181.8
-42459.2
-38181.8
-38181.8
-4298.86
-33883
-4298.86
-4298.85
22367.8
-26666.6
22367.8
22367.8
22367.8
44044.7
-21677
44044.7
44044.7
65017
-20972.3
-35448.9
100070
-34084.6
123635
-32497.9
121922
-29486.9
111911
-15270.2
51210.1
-377.719
-75476.2
159.072
-107575
-8528.08
-97033.1
-6201.48
-57087.4
3897.21
37944.2
8899.09
91902.2
12916.8
121168
18489.6
116939
23636.5
95543.7
27509.1
65346.9
29155.9
42142.2
28725.7
25454.2
26788.4
6296.94
-26543.7
-35981.1
99691.7
-34930.8
122585
-33905.4
120897
-29734.9
107740
-10623.4
32098.5
-4256.54
-81843
-15730.6
-96101.3
-25919.6
-86844.2
-16700.9
-66306.1
1390.43
19852.9
7361.68
85930.9
9983.4
118546
16039.4
110883
22660.1
88923
28606.2
59400.8
31350.5
39397.9
30660.3
26144.5
27326.7
9630.51
-20894
-36654.6
99417.6
-36032.6
121963
-35575.4
120439
-30366.6
102531
-13501.4
15233.4
-17906.3
-77438.1
-33059.7
-80947.9
-38849.4
-81054.5
-29635.6
-75519.9
-5140.79
-4641.81
4608.73
76181.4
5034.74
118120
11427.7
104490
20082.5
80268.2
29020.7
50462.6
33877.1
34541.4
33327.2
26694.4
30244.5
12713.3
-17316.2
-37448.3
99281.3
-37335.3
121850
-37532.4
120636
-32338.4
97337.3
-23404
6298.89
-37020.4
-63821.6
-51549.5
-66418.9
-54628.3
-77975.7
-47075
-83073.2
-19437.8
-32279
-1288.44
58032
-1226.59
118058
4162.27
99101.4
15193.8
69236.6
27697.3
37959.1
35282.3
26956.5
34936
27040.7
34375.1
13274.2
-16824.1
-38250
99340.3
-38710.6
122311
-39650.8
121577
-36944.1
94630.6
-39919.9
9274.73
-59634.2
-44107.3
-71828.7
-54224.4
-72246.2
-77558.2
-65555.7
-89763.7
-47954.9
-49879.9
-23090
33167.2
-10856.5
105825
-6015.44
94260.4
7137.47
56083.7
23054.2
22042.3
34306.7
15704
34543.5
26803.9
37440.2
10377.5
-21843.1
-38883.8
99731.3
-39970.6
123398
-41907.2
123513
-44571.1
97294.5
-59674.3
24378
-82282.9
-21498.8
-91802.7
-44704.5
-89755
-79606
-80417
-99101.6
-65689.5
-64607.4
-48017.6
15495.2
-30300.8
88108
-20122.8
84082.4
-7739.17
43700.1
7260
7043.12
21928.2
1035.79
29126.6
19605.5
33447
6057.06
-29627.1
-39188.9
100656
-40979.9
125189
-44038.2
126571
-52403.5
105660
-76019.1
47993.7
-98959.3
1441.4
-104635
-39029
-101577
-82663.6
-95287.5
-105391
-82573
-77321.8
-67889.8
812.065
-50826.6
71044.7
-40402.2
73658
-36225.3
39523.2
-32516.5
3334.29
-18349.1
-13131.6
5074.02
-3817.67
-214.315
11345.4
44425.4
-39045.5
102302
-41655.8
127799
-45642.1
130558
-57428.9
117447
-82815.8
73380.6
-100494
19119.9
-98998.1
-40525.2
-95625.8
-86035.9
-98847.4
-102170
-96867.2
-79302.1
-86230.5
-9824.64
-72190.2
57004.5
-68363.8
69831.6
-76753.9
47913.3
-87035.7
13616.1
-86176.9
-13990.3
-79266.6
-10728.1
-94155.2
26234
77589.2
-38430.7
104745
-41962.3
131330
-46415.3
135011
-58430.4
129462
-79339.4
94289.6
-86910.6
26691.1
-78360.8
-49075
-77896.7
-86499.9
-94059.2
-86007.3
-108500
-64861.4
-107092
-11232.5
-98783.1
48695.6
-101579
72627
-115195
61529.4
-126111
24532.1
-125712
-14389
-116064
-20375.9
-102019
12188.4
50327.2
-37502.5
107854
-41925.1
135753
-46486.4
139572
-56985
139960
-72315.8
109620
-72291.2
26666.5
-61423.6
-59942.6
-65959.7
-81963.9
-91843.2
-60123.8
-117101
-39603.7
-125851
-2482.72
-123811
46655.6
-126025
74841.1
-132761
68265.3
-134294
26065.3
-127034
-21648.7
-108538
-38872.3
-74650.1
-21699.3
-1985.69
-36676.5
111197
-41635.4
140712
-46079.6
144016
-54466.6
148347
-65265.6
120419
-62235
23635.8
-53425.6
-68751.9
-63196.1
-72193.4
-92670.6
-30649.2
-118620
-13654.4
-130791
9688.25
-132709
48573.6
-132785
74917.4
-132540
68019.8
-128311
21836.4
-121988
-27971.2
-111892
-48968.1
-83886
-49705.8
-56779.2
-36576.6
114073
-41324
145459
-45440.6
148133
-51756.2
154663
-59244.1
127907
-55089.5
19481.1
-48714.1
-75127.3
-62742.5
-58165
-91660
-1731.76
-112957
7642.28
-124037
20768.1
-126879
51416.5
-123615
71652.5
-113812
58217.6
-100412
8436
-97438.7
-30944.5
-112704
-33702.9
-123182
-39227.4
-83461.3
-37914.9
115702
-41462.5
149007
-44897.3
151568
-49307.5
159073
-53928.8
132529
-47708.6
13261
-41722.8
-81113.1
-56182
-43705.9
-81029.2
23115.5
-98168.1
24781.2
-108790
31389.8
-111566
54192.8
-103731
63817.7
-83711.8
38198.1
-60208.9
-15066.9
-49715.9
-41437.5
-69118.5
-14300.2
-109922
1575.68
-52381.8
-41177.1
115512
-42681.9
150512
-44982.4
153868
-47492.1
161583
-48938.5
133975
-39320.5
3642.97
-33616.5
-86817
-45851.9
-31470.5
-64091.5
41355.2
-77431.5
38121.2
-86704.9
40663.2
-88840.3
56328.1
-78053.3
53030.8
-54611.1
14755.9
-32968.4
-36709.7
-18265.4
-56140.5
-1276.68
-31288.9
3463.66
-3164.65
6988.61
-46580.3
113061
-45340.8
149272
-46005.3
154533
-46310.3
161888
-43494.2
131159
-29728.9
-10122.4
-26392.9
-90153
-37601.1
-20262.4
-48487.3
52241.4
-58331.5
47965.3
-65761
48092.8
-65654
56221.1
-51447
38823.7
-29120.6
-7570.43
-15225.8
-50604.5
-9789.61
-61576.6
-2625.11
-38453.4
15771
-21560.7
-8619.59
-53911.7
107752
-49079.3
144440
-47856.9
153310
-45928.7
159960
-37617.9
122848
-20597
-27143.2
-20234.9
-90515
-30638.9
-9858.44
-35564
57166.5
-42526.8
54928.1
-48144.4
53710.4
-45183.8
53260.5
-27849.7
21489.6
-10033.9
-25386.2
-3627.67
-57010.8
-3723.74
-61480.5
-2405.84
-39771.3
11906.5
-35873.1
-19960.7
-65057.2
99428.3
-55982.8
135366
-52516.3
149844
-47631.6
155075
-31423
106639
-14048.3
-44517.9
-16264.7
-88298.6
-22492.4
-3630.71
-24343.8
59017.9
-29368.7
59953
-32792.5
57134.2
-27553.7
48021.7
-9259.5
3195.39
2900.06
-37545.8
3607.73
-57718.5
1014.26
-58887.1
1170.54
-39927.6
9199.97
-43902.5
-25364.6
-81523.5
90323.9
-70314.8
124157
-64185.7
143715
-53073.1
143962
-24305.8
77872.2
-8492.91
-60330.9
-13514.9
-83276.6
-13122.6
-4023.08
-14421.8
60317.2
-18692.7
64223.9
-20691.8
59133.3
-14274.8
41604.7
765.625
-11845.1
7882.86
-44663
6985.53
-56821.1
4511.78
-56413.3
4230.16
-39646
8037.94
-47710.3
-27568.9
-104088
83674.7
-92986.5
113055
-79981.9
130710
-55391.5
119372
-17397
39877.7
-5211.43
-72516.4
-9938.51
-78549.6
-5619.41
-8342.18
-6211.82
60909.6
-10209.5
68221.6
-12187.5
61111.3
-5107.81
34525.1
5257.68
-22210.6
8850.3
-48255.6
8156.24
-56127.1
6439.47
-54696.6
5525.01
-38731.5
7275.1
-49460.4
-26934.2
-107712
-97433.6
-78088
-45935.6
-13500.9
-5021.4
-6590.88
-3178.53
-400.638
-1633.5
-3092.9
1055.26
7175.38
9777.75
9378.86
7809.23
6062.07
6773.26
843.438
-7488.91
3266.31
-15763.5
5625.05
-17487
7534.95
-16597.5
9052.71
-15096.3
10297.2
-13684.3
11011.4
-12449.3
11539.5
-11393.8
11866.1
-10427.5
11982.7
-9526.47
11881.1
-8679.92
11563.3
-7879.45
11036
-7120.3
10308.6
-6392.95
9395.45
-5690.92
8296.1
-4995.82
6984.25
-4304.82
5337.92
-3586.73
3113.01
-2618.62
-815.124
2346.63
-9835.52
4027.81
-17444.7
4857.09
-18316.3
5343.23
-17083.6
5884.62
-15637.6
6565.34
-14365
7364.19
-13248.2
8137.08
-12166.7
8803.49
-11093.9
9301.89
-10024.8
9593.06
-8971.08
9652.85
-7939.22
9469.19
-6936.62
9036.71
-5960.46
8357.93
-5012.12
7420.87
-4058.75
6201.58
-3085.52
4588.17
-1973.3
2521.52
-551.944
1706.39
3684.31
-13519.8
5502.98
-19263.3
6144.35
-18957.7
6681.41
-17620.7
7481.81
-16438
8471.4
-15354.5
9500.22
-14277
10436.4
-13102.9
11215
-11872.5
11797.6
-10607.4
12156.6
-9330.06
12259.2
-8041.8
12069.7
-6747.14
11548.8
-5439.53
10654.2
-4117.5
9327.74
-2732.29
7454.39
-1212.14
4898.29
582.816
2426.64
1919.73
4133.04
3267.42
-16787.2
3608.1
-19604
3356.19
-18705.7
3386.52
-17651
3718.07
-16769.6
4198.84
-15835.3
4664.68
-14742.8
5014.06
-13452.3
5234.51
-12092.9
5315.37
-10688.2
5234.27
-9248.95
4951.5
-7759.02
4428.59
-6224.2
3643.97
-4654.89
2615.72
-3089.23
1477.35
-1593.89
483.32
-218.043
-238.145
1304.35
-914.764
2596.39
3218.27
247.332
-17034.5
-1228.76
-18127.9
-2496.43
-17438
-3517.9
-16629.5
-4486.38
-15801.1
-5430.06
-14891.6
-6399.99
-13772.9
-7393.31
-12458.9
-8400.7
-11085.5
-9427.5
-9661.39
-10485.6
-8190.84
-11573.4
-6671.16
-12662.8
-5134.78
-13669.3
-3648.38
-14422
-2336.48
-14586.6
-1429.32
-13647
-1157.62
-10863.8
-1478.81
-5998.02
-2269.38
-2779.75
-2038.77
-14995.8
-3707.08
-16459.6
-5355.29
-15789.8
-7145.57
-14839.2
-9146.01
-13800.6
-11217.6
-12820.1
-13237.5
-11753
-15169
-10527.4
-17032.9
-9221.6
-18855.3
-7838.99
-20620.5
-6425.61
-22234.2
-5057.5
-23477.4
-3891.59
-23962.2
-3163.5
-23179.6
-3119.07
-20724.4
-3884.57
-16471.8
-5410.17
-10619.7
-7330.95
-4309.42
-8579.64
-7089.17
-1420.36
-13575.4
-1931.96
-15948
-2668.32
-15053.5
-3670.91
-13836.6
-4863.61
-12607.9
-6132.05
-11551.6
-7254.92
-10630.1
-8151.79
-9630.51
-8766.57
-8606.81
-9073.76
-7531.8
-9045.9
-6453.46
-8673.97
-5429.42
-7948.3
-4617.25
-6837.42
-4274.38
-5302.9
-4653.58
-3397.11
-5790.35
-1469.93
-7337.34
-112.885
-8687.98
208.484
-8900.99
-6880.69
-105.274
-13470.1
473.287
-16526.5
933.587
-15513.8
1149.89
-14052.9
1352.71
-12810.8
1562.8
-11761.7
1874.16
-10941.4
2349.38
-10105.8
3065.32
-9322.75
4082.05
-8548.55
5428.24
-7799.66
7059.58
-7060.78
8795.73
-6353.42
10274.8
-5753.48
11001.3
-5380.07
10554.5
-5343.53
8828.17
-5611.02
6078.7
-5938.52
2952.19
-5774.49
-3928.5
373.774
-13843.9
1233.61
-17386.4
1875.35
-16155.5
2264.13
-14441.7
2770.65
-13317.3
3338.3
-12329.3
3931.71
-11534.8
4521.26
-10695.3
5116.76
-9918.24
5725.06
-9156.83
6358.64
-8433.23
7030.62
-7732.73
7724.43
-7047.22
8337.68
-6366.72
8663.63
-5706.01
8413.31
-5093.21
7373.6
-4571.32
5475.15
-4040.08
2960.04
-3259.39
-968.457
785.52
-14629.4
1495.69
-18096.5
1873.46
-16533.3
2150.7
-14718.9
2611.09
-13777.6
3073.28
-12791.5
3543.38
-12005
3976.09
-11128
4384.73
-10326.9
4743.03
-9515.13
5039
-8729.2
5255.91
-7949.64
5389.4
-7180.72
5432.42
-6409.73
5358.02
-5631.62
5076.93
-4812.12
4455.07
-3949.46
3353.16
-2938.18
1700.62
-1606.87
732.164
1323.59
-15953
1738.37
-18511.3
1986.76
-16781.7
2399.81
-15132
2987.45
-14365.3
3542.67
-13346.7
4132.3
-12594.6
4720.48
-11716.2
5336.23
-10942.6
5930.36
-10109.3
6459.12
-9257.95
6845.83
-8336.35
7026.51
-7361.4
6949.74
-6332.96
6587.98
-5269.87
5918.17
-4142.32
4917.35
-2948.65
3568.23
-1589.06
1822.03
139.31
2554.2
1606.86
-17559.9
1504.27
-18408.7
1727.26
-17004.7
2212.09
-15616.8
2835.66
-14988.9
3464.42
-13975.5
4204.65
-13334.8
5013.17
-12524.7
5929.87
-11859.3
6856.82
-11036.2
7700.2
-10101.3
8313.11
-8949.28
8606.97
-7655.28
8523.85
-6249.85
8031.51
-4777.54
7046.3
-3157.12
5336.65
-1239.01
3224.2
523.371
1428.75
1934.73
3982.95
878.293
-18438.2
131.587
-17662
6.66973
-16879.8
29.1293
-15639.3
135.35
-15095.1
286.909
-14127.1
550.682
-13598.6
911.195
-12885.2
1373.78
-12321.9
1820.15
-11482.6
2110.67
-10391.9
2098.1
-8936.71
1743.55
-7300.74
1076.38
-5582.69
194.16
-3895.34
-705.962
-2257.02
-1260.61
-684.393
-1655.12
917.857
-1720.78
2000.37
2262.17
-382.951
-18055.2
-1314.83
-16730.2
-1962.34
-16232.3
-2657.31
-14944.3
-3329.13
-14423.3
-4030.63
-13425.6
-4731.24
-12898
-5436.89
-12179.6
-6151.78
-11607.1
-6890.92
-10743.5
-7686.84
-9595.98
-8536.56
-8087.02
-9428.73
-6408.58
-10343.3
-4668.15
-11205.5
-3033.15
-11735.3
-1727.19
-11375.8
-1043.88
-9267.72
-1190.26
-5141.84
-2125.51
-2879.67
-609.917
-17445.3
-1261.77
-16078.3
-1880.6
-15613.5
-2698.39
-14126.6
-3484.93
-13636.8
-4435.52
-12475
-5468.27
-11865.3
-6657.87
-10990
-7947.03
-10317.9
-9217.54
-9472.99
-10277.4
-8536.09
-10940.3
-7424.13
-11107.4
-6241.5
-10744.1
-5031.45
-9864.47
-3912.82
-8466.85
-3124.82
-6474.37
-3036.37
-3887.37
-3777.28
-1361.27
-4651.62
-4240.94
141.441
-17586.8
117.986
-16054.9
210.26
-15705.8
196.856
-14113.2
209.647
-13649.6
170.257
-12435.7
69.4487
-11764.5
-104.135
-10816.5
-353.431
-10068.7
-568.2
-9258.26
-594.926
-8509.4
-274.214
-7744.89
472.892
-6988.64
1664.79
-6223.4
3219.68
-5467.74
4806.44
-4711.61
5741.74
-3971.69
5209.68
-3245.22
3019.81
-2461.77
-1221.13
114.216
-17701
79.1773
-16019.9
207.89
-15834.5
449.147
-14354.5
687.546
-13888
1086.69
-12834.9
1495.97
-12173.8
2022.71
-11343.2
2589.42
-10635.4
3233.37
-9902.22
3939.49
-9215.53
4731.41
-8536.83
5608.17
-7865.42
6538.64
-7153.88
7395.68
-6324.79
7896.65
-5212.59
7622.78
-3697.83
6050.54
-1673
3314.96
273.8
2093.83
-1027.73
-16673.3
-2171.97
-14875.7
-2995.82
-15010.7
-3484.93
-13865.4
-3890.46
-13482.5
-4002.42
-12722.9
-3995.58
-12180.6
-3783.63
-11555.2
-3431.57
-10987.4
-2929.38
-10404.4
-2309.88
-9835.04
-1584.04
-9262.68
-761.221
-8688.25
150.428
-8065.54
1093.51
-7267.89
1904.46
-6023.55
2271.77
-4065.15
1920.31
-1321.56
876.509
1317.58
2970.34
-2099.77
-14573.5
-4452.67
-12522.8
-6778.04
-12685.3
-8687.28
-11956.1
-10487.4
-11682.4
-11952.2
-11258.1
-13207.5
-10925.2
-14191.9
-10570.8
-14946.4
-10233
-15460.9
-9889.91
-15748.9
-9547.09
-15810
-9201.6
-15645
-8853.25
-15226.3
-8484.23
-14468.4
-8025.78
-13161.4
-7330.55
-11017.7
-6208.87
-7801.34
-4537.88
-3938.02
-2545.75
-967.68
-5473.56
-8896.33
-12481.6
-15337.8
-17920.2
-20078.3
-21903.6
-23374.4
-24507.4
-25297.3
-25744.4
-25846
-25599.2
-24983.5
-23909.3
-22139.8
-19248.7
-14686.6
-8132.32
-5473.23
14573.2
-8896.07
12522.8
-12481.5
12685.4
-15337.9
11956.4
-17920.7
11682.8
-20079.3
11258.6
-21905.1
10925.8
-23376.6
10571.5
-24510.3
10233.7
-25300.9
9890.62
-25748.8
9547.87
-25851.4
9202.62
-25606.1
8854.72
-24992
8485.84
-23917.8
8025.81
-22144
7326.26
-19244.4
6200.37
-14676.5
4532.1
-8126.1
2549.6
973.901
-2102.27
16675.5
-4457.26
14877.8
-6784.85
15013
-8696.34
13867.9
-10498.8
13485.3
-11966.1
12725.9
-13224.2
12184
-14211.6
11558.8
-14969.3
10991.4
-15487.2
10408.6
-15778.8
9839.41
-15843.7
9267.56
-15683.3
8694.28
-15269.7
8072.27
-14515.6
7271.7
-13207.6
6018.24
-11056.6
4049.33
-7825.68
1301.2
-3942.93
-1333.15
-2969.03
-1028.48
17704
-2174.32
16023.7
-2999.06
15837.7
-3490.09
14358.9
-3896.88
13892
-4011.43
12840.5
-4007
12179.5
-3798.77
11350.6
-3450.54
10643.1
-2952.31
9910.34
-2335.76
9222.85
-1611.42
8543.21
-788.176
7871.04
125.249
7158.84
1068.65
6328.29
1875.23
5211.66
2234.9
3689.66
1883.03
1653.07
851.131
-301.258
-2117.9
119.75
17584.2
81.5127
16061.9
211.352
15707.9
458.285
14112
700.227
13650.1
1106.65
12434
1523.29
11762.9
2062.21
10811.7
2643.01
10062.3
3302.16
9251.18
4018.99
8506.03
4811.09
7751.11
5668.44
7013.69
6554.63
6272.65
7357.75
5525.16
7815.16
4754.26
7521.47
3983.35
5953.05
3221.49
3243.62
2408.17
1125.72
163.646
17420.6
186.266
16039.3
310.67
15583.5
336.549
14086.1
390.486
13596.2
399.658
12424.9
350.186
11812.3
234.481
10927.3
46.8984
10249.9
-104.473
9402.54
-73.232
8474.78
293.454
7384.41
1068.91
6238.22
2273.02
5068.54
3810.59
3987.59
5315.12
3249.72
6087.53
3210.93
5364.87
3944.16
3062.52
4710.52
4188.24
-540.198
17960.8
-1167.21
16666.3
-1724.94
16141.2
-2471.11
14832.3
-3203.18
14328.2
-4082.89
13304.6
-5046.8
12776.3
-6155.82
12036.4
-7370.62
11464.7
-8571.09
10603
-9560.86
9464.56
-10143.4
7966.92
-10219.1
6313.98
-9760.29
4609.71
-8797.14
3024.45
-7346.49
1799.07
-5392.01
1256.46
-3046.01
1598.16
-959.028
2623.54
3229.21
-248.403
18209.2
-1067.37
17485.2
-1643.46
16717.3
-2352.21
15541
-2935.34
14911.4
-3614.58
13983.8
-4254.8
13416.5
-4934.55
12716.1
-5618.67
12148.8
-6338.68
11323
-7141.43
10267.3
-8040.91
8866.4
-9001.19
7274.25
-9993.95
5602.47
-10924
3954.54
-11467.4
2342.39
-11007.6
796.698
-8901.21
-508.231
-4821.73
-1455.93
-1592.52
900.608
17308.5
983.935
17401.9
1267.8
16433.4
1418.6
15390.2
1759.11
14570.9
2013.56
13729.4
2388.3
13041.7
2756.22
12348.2
3181.62
11723.4
3517.68
10987
3655.86
10129.1
3453.87
9068.39
2886.26
7841.87
1982.3
6506.43
832.03
5104.81
-402.713
3577.14
-1431.42
1825.42
-1735.21
-204.432
-1732.57
-1458.57
-3325.09
1356.49
15952.1
2385.59
16372.8
3346.36
15472.7
4154.99
14581.6
4962.55
13763.3
5701.51
12990.4
6459.29
12283.9
7177.64
11629.8
7886.11
11015
8524.35
10348.7
9074.17
9579.31
9434.75
8707.82
9503.69
7772.92
9225.17
6784.96
8573.98
5756
7492.17
4658.95
5828.43
3489.17
3449.9
2174.1
1435.72
555.612
-1889.37
1154.51
14797.6
2287.31
15240
3195.61
14564.4
3886.04
13891.1
4452.62
13196.7
4947.38
12495.6
5408.53
11822.8
5813.58
11224.8
6154.5
10674.1
6437.32
10065.9
6678.61
9338.02
6827.1
8559.33
6821.35
7778.68
6610.32
6995.99
6165.14
6201.18
5463.06
5361.03
4488.12
4464.12
3238.09
3424.13
1734.41
2059.29
-154.953
732.683
14064.9
1513.15
14459.5
1978.57
14098.9
2224.66
13645.1
2394.95
13026.4
2630.65
12259.9
3034.83
11418.6
3648.58
10611
4281.54
10041.1
4710.66
9636.79
4913.95
9134.72
5007.16
8466.13
5028.14
7757.7
4960.94
7063.18
4761.14
6400.99
4356.75
5765.42
3674.5
5146.36
2666.86
4431.76
1330.71
3395.44
1175.76
236.79
13828.1
329.351
14367
72.2401
14356
-352.633
14069.9
-738.553
13412.3
-833.267
12354.7
-368.384
10953.7
684.602
9558.06
2042.98
8682.72
3532.99
8146.79
4919.65
7748.06
6107.56
7278.23
7029.9
6835.35
7554.9
6538.19
7594.13
6361.76
7054.89
6304.67
5916.31
6284.94
4234.11
6113.97
2226.34
5403.22
3402.1
-442.536
14270.6
-1229.2
15153.7
-2305.16
15432
-3489.76
15254.5
-4645.66
14568.2
-5561.48
13270.5
-5953.56
11345.8
-5732.02
9336.53
-4918.35
7869.05
-3543.95
6772.39
-1856.9
6061.01
-37.5069
5458.84
1885.33
4912.52
3735.56
4687.97
5211.68
4885.64
5920.79
5595.56
5591.96
6613.77
4223.3
7482.63
2151.41
7475.11
5553.51
-1592.6
15863.2
-3176.74
16737.8
-4768.92
17024.2
-6359.28
16844.9
-8058.68
16267.6
-9937.81
15149.6
-11938.8
13346.8
-13796.7
11194.4
-15284.8
9357.18
-16429.2
7916.8
-17249.7
6881.47
-17671.6
5880.7
-17508
4748.93
-16542.2
3722.21
-14622.2
2965.63
-11701.8
2675.11
-8095.17
3007.18
-4481.51
3868.98
-1564.8
4558.4
3988.7
-687.378
16550.6
-1836.6
17887
-2522.78
17710.4
-2927.12
17249.2
-3334.92
16675.4
-4049.94
15864.6
-5330.32
14627.2
-7124.22
12988.3
-9170.83
11403.8
-11252
9997.96
-13192.5
8822
-15011.4
7699.56
-16724.5
6462.04
-18122.2
5119.92
-18797.7
3641.15
-18207.3
2084.66
-15950.6
750.51
-11746
-335.629
-5809.62
-1377.97
-1820.92
1773.65
14776.9
2155.29
17505.4
3039.59
16826.1
4370.71
15918.1
5912.81
15133.3
7370.6
14406.9
8375.99
13621.8
8689.3
12675
8432.9
11660.2
7799.96
10630.9
7003.86
9618.1
6077.17
8626.25
4909.41
7629.8
3432.7
6596.63
1607.4
5466.45
-408.037
4100.1
-2012.46
2354.94
-2164.7
-183.383
-1890.36
-1652.3
-3711.28
2710.15
12066.8
4257.69
15957.8
5780.26
15303.5
7506.73
14191.6
9399.05
13241
11328.4
12477.5
13122.8
11827.4
14584.8
11213
15659.3
10585.6
16364.7
9925.51
16744.3
9238.51
16819.8
8550.81
16553.3
7896.22
15880
7270
14711.2
6635.23
12916.2
5895.11
10291.4
4979.72
6348.22
3759.8
2619.2
2076.72
-1092.08
2028.38
10038.4
3749.93
14236.3
5174.99
13878.4
6483.85
12882.8
7735.73
11989.1
8908.67
11304.6
9958.52
10777.5
10830.6
10340.9
11483.2
9933.09
11905.4
9503.34
12091.7
9052.13
12031.8
8610.76
11714.8
8213.27
11129.1
7855.62
10257.1
7507.24
9049.44
7102.8
7445.42
6583.75
5391.99
5813.23
2979.81
4488.9
1887.73
1100.8
8937.62
2349.94
12987.2
3394.28
12834.1
4218.64
12058.4
4908.14
11299.6
5488.09
10724.6
6022.63
10243
6465.95
9897.61
6816.68
9582.36
7088.15
9231.88
7288.57
8851.71
7414.1
8485.23
7458.46
8168.91
7397.68
7916.4
7169.18
7735.74
6634.7
7637.29
5637.54
7580.92
4070.01
7380.77
2075.42
6483.5
3963.15
973.092
2745.72
4252.91
5367.18
6180.98
6801.84
7068.32
7142.38
7154.61
7114.73
7025.45
6893.76
6729.11
6525.23
6245.07
5795.24
5060.03
3920.19
2280.74
)
;

boundaryField
{
    outletWall
    {
        type            calculated;
        value           nonuniform List<scalar> 
60
(
65017
32359.9
-4359.7
-25024
-43789
-69219.4
-100691
-122512
-125186
-96904
-48042.9
54760.8
105720
107039
60583.7
-65426.8
-114922
-123509
-125000
-100754
111272
110737
90627.8
73381.2
59220
49031.7
41367.2
36286
33700.8
33333.3
34393.3
35987.2
37400.1
38264
38492.8
38191
37584.6
36928.8
36359.5
36132.8
-44369.9
-24986
-50171.6
-36984.3
-53126.9
-55728.2
-50858
-28330.7
30376.9
62570.7
69454.5
58131.7
-11754.5
-76980.1
-80995.9
7442.97
87219.5
111364
102777
80114.8
)
;
    }
    fineWalls
    {
        type            calculated;
        value           uniform 0;
    }
    fineFrontAndBack
    {
        type            calculated;
        value           nonuniform List<scalar> 
960
(
3.51979e-15
-4.31255e-14
3.011e-14
6.71207e-14
2.62279e-13
-4.44226e-14
5.25637e-14
-4.89769e-13
1.9233e-12
3.70033e-13
1.29644e-12
-8.03154e-12
-2.65252e-12
-2.23555e-12
-2.65901e-11
-8.06498e-12
-9.43362e-12
-4.51947e-11
-1.02058e-11
-1.17567e-11
-3.18574e-12
-3.98035e-12
-4.00599e-12
-3.72732e-12
-3.4721e-12
-3.48799e-12
-4.58012e-11
-4.16212e-12
-4.30877e-12
-4.3266e-12
-4.29907e-12
-4.22713e-12
-4.00051e-12
-3.43169e-12
-2.33637e-12
-4.39825e-13
2.01845e-12
3.48715e-12
4.0128e-12
7.84862e-13
1.23059e-10
1.93676e-11
1.29231e-11
4.16614e-12
-1.41623e-11
-9.2707e-12
-1.1285e-11
-1.23374e-11
-1.12102e-10
-2.00955e-11
-1.01296e-11
6.164e-11
1.495e-11
1.82637e-11
1.77666e-11
5.94365e-11
-2.98832e-12
-1.37434e-11
-2.30401e-11
-6.72149e-11
4.33751e-12
1.10793e-12
7.6006e-13
-3.87238e-13
-8.62656e-13
-6.04153e-13
2.88886e-13
1.18648e-12
1.8685e-12
2.28102e-12
2.71421e-12
3.38267e-12
4.00305e-12
-5.46393e-12
2.7324e-12
2.43629e-12
2.69841e-12
3.23748e-12
3.46148e-12
2.22846e-12
7.45426e-12
9.31366e-12
6.89592e-11
1.67123e-11
2.0415e-11
1.35747e-10
2.67727e-11
3.10513e-11
1.58062e-10
1.92292e-11
3.0376e-11
2.37713e-10
4.87404e-11
4.55678e-11
3.92581e-11
1.67195e-10
2.12113e-11
1.58117e-11
8.16811e-11
1.4525e-11
2.16699e-10
2.89243e-10
3.01261e-10
3.15024e-10
3.20937e-10
3.02564e-10
2.46739e-10
1.93304e-10
1.72199e-10
1.63623e-10
1.60716e-10
1.50535e-10
1.62189e-10
1.89972e-10
2.11617e-10
2.15862e-10
2.06573e-10
1.92226e-10
1.71411e-10
2.24415e-10
2.92375e-10
3.03094e-10
3.169e-10
3.18641e-10
2.59841e-10
1.71837e-10
1.43465e-10
1.5005e-10
1.53532e-10
1.59312e-10
1.50658e-10
1.61313e-10
1.87544e-10
2.09135e-10
2.15998e-10
2.10458e-10
2.01324e-10
1.61723e-10
2.34016e-10
2.95988e-10
3.05539e-10
3.19472e-10
3.08899e-10
1.9936e-10
1.30181e-10
1.36093e-10
1.44873e-10
1.4188e-10
1.52396e-10
1.49381e-10
1.60415e-10
1.85167e-10
2.06226e-10
2.15585e-10
2.138e-10
2.10699e-10
1.64264e-10
2.44056e-10
2.99412e-10
3.08609e-10
3.21122e-10
2.78595e-10
1.30795e-10
9.64966e-11
1.16404e-10
1.25646e-10
1.30209e-10
1.40082e-10
1.45535e-10
1.59015e-10
1.83406e-10
2.03398e-10
2.13945e-10
2.16146e-10
2.12495e-10
1.99232e-10
2.54056e-10
3.02598e-10
3.12335e-10
3.18826e-10
2.25106e-10
6.70699e-11
5.73205e-11
7.37574e-11
8.87759e-11
1.15658e-10
1.28452e-10
1.40216e-10
1.57116e-10
1.82373e-10
1.99998e-10
2.0926e-10
2.13421e-10
2.11763e-10
1.8039e-10
2.63603e-10
3.05894e-10
3.16136e-10
3.11317e-10
1.68606e-10
1.59906e-12
-1.06297e-11
-7.22463e-12
2.38574e-11
9.30221e-11
1.26932e-10
1.37019e-10
1.55011e-10
1.80675e-10
2.07472e-10
2.23753e-10
2.13158e-10
2.27623e-10
6.17187e-11
2.71776e-10
3.0992e-10
3.19391e-10
3.01697e-10
1.22369e-10
-7.73371e-11
-1.14751e-10
-1.17028e-10
-6.13617e-11
5.72535e-11
1.33595e-10
1.39655e-10
1.54627e-10
1.9456e-10
2.49991e-10
2.58543e-10
2.09088e-10
2.02871e-10
-1.29982e-10
2.76644e-10
3.15337e-10
3.2247e-10
2.93395e-10
8.85199e-11
-1.57108e-10
-2.19965e-10
-2.04615e-10
-1.31078e-10
2.32072e-11
1.54037e-10
1.53776e-10
1.71051e-10
2.33973e-10
2.83018e-10
2.48229e-10
1.42123e-10
-2.30706e-11
-1.74042e-10
2.75361e-10
3.21612e-10
3.26014e-10
2.90214e-10
7.86904e-11
-1.90202e-10
-2.46952e-10
-2.11117e-10
-1.55907e-10
5.6844e-13
1.79703e-10
2.00726e-10
2.12575e-10
2.48047e-10
2.33665e-10
1.84662e-10
1.71504e-10
1.43682e-10
9.08127e-11
2.65515e-10
3.2651e-10
3.30457e-10
2.92269e-10
9.24998e-11
-1.60226e-10
-1.93164e-10
-1.63954e-10
-1.56438e-10
-2.39018e-11
2.05577e-10
2.67661e-10
1.90659e-10
1.5195e-10
6.71525e-11
4.24714e-11
5.25494e-11
1.00051e-10
1.13009e-10
2.47869e-10
3.2701e-10
3.36204e-10
2.98102e-10
1.03606e-10
-1.71043e-10
-2.10713e-10
-1.42481e-10
-1.69569e-10
-1.05019e-10
4.97621e-11
1.3561e-10
1.0293e-10
3.00565e-11
-6.50787e-11
-8.39568e-11
-5.71566e-11
-2.98466e-11
-5.86186e-11
2.29123e-10
3.20912e-10
3.40609e-10
3.03307e-10
1.16102e-10
-1.39798e-10
-1.64473e-10
-1.56467e-10
-1.92583e-10
-1.78255e-10
-1.02268e-10
-4.14681e-11
-4.1979e-11
-9.2314e-11
-1.29699e-10
-9.48628e-11
-4.69799e-11
-1.46063e-11
-1.43374e-12
2.21143e-10
3.09184e-10
3.40113e-10
3.08061e-10
1.36528e-10
-1.07012e-10
-1.5876e-10
-1.52422e-10
-2.09345e-10
-2.30413e-10
-2.07521e-10
-1.78085e-10
-1.63807e-10
-1.64353e-10
-1.28042e-10
-5.81683e-11
2.08119e-11
1.04885e-10
1.60645e-10
2.34153e-10
2.98105e-10
3.34142e-10
3.12888e-10
1.63961e-10
-7.73133e-11
-1.54972e-10
-1.36687e-10
-1.91266e-10
-2.29053e-10
-2.37856e-10
-2.36853e-10
-2.21877e-10
-1.83306e-10
-1.13992e-10
-5.33271e-11
-1.26956e-11
1.70424e-11
2.39306e-11
2.67037e-10
2.99406e-10
3.2929e-10
3.19928e-10
1.92762e-10
-6.05876e-11
-1.55137e-10
-1.2364e-10
-1.60539e-10
-2.0082e-10
-2.25317e-10
-2.3738e-10
-2.24838e-10
-1.67665e-10
-1.00031e-10
-4.82315e-11
-1.43273e-11
3.15714e-12
4.26702e-11
3.0064e-10
3.23223e-10
3.38285e-10
3.33994e-10
2.15567e-10
-6.11237e-11
-1.49138e-10
-1.18116e-10
-1.31591e-10
-1.66099e-10
-1.9877e-10
-2.17177e-10
-2.00552e-10
-1.38371e-10
-8.603e-11
-4.18232e-11
-1.00886e-11
7.74117e-13
1.92542e-11
2.96835e-10
3.52169e-10
3.56428e-10
3.44818e-10
2.13698e-10
-8.73231e-11
-1.35565e-10
-1.18727e-10
-1.10456e-10
-1.33844e-10
-1.67875e-10
-1.88025e-10
-1.67124e-10
-1.04962e-10
-7.09225e-11
-3.42244e-11
-4.42917e-12
2.1084e-12
-5.39412e-13
2.17272e-10
3.21758e-10
3.30131e-10
3.04807e-10
1.54779e-10
-1.35398e-10
-1.27242e-10
-1.22479e-10
-1.00552e-10
-1.08372e-10
-1.37509e-10
-1.5854e-10
-1.35943e-10
-7.87209e-11
-5.57966e-11
-2.67043e-11
-1.60862e-12
2.24981e-12
3.50951e-13
7.45112e-11
1.94197e-10
2.14723e-10
1.85139e-10
4.5573e-11
-1.48073e-10
-1.27303e-10
-1.26449e-10
-1.01768e-10
-9.25323e-11
-1.10269e-10
-1.32118e-10
-1.0826e-10
-6.79858e-11
-4.81235e-11
-2.3149e-11
-1.30578e-12
2.15573e-12
-2.92451e-13
-1.11756e-10
-3.03476e-11
-2.59562e-12
-8.3089e-12
-7.57919e-11
-1.36738e-10
-1.27894e-10
-1.28437e-10
-1.11231e-10
-9.30006e-11
-8.87236e-11
-9.98368e-11
-8.98058e-11
-6.31471e-11
-4.72716e-11
-2.21565e-11
-4.25425e-13
2.03926e-12
-5.23651e-13
-3.51979e-15
4.31255e-14
-3.011e-14
-6.71207e-14
-2.62279e-13
4.44226e-14
-5.25637e-14
4.89769e-13
-1.9233e-12
-3.70033e-13
-1.29644e-12
8.03154e-12
2.65252e-12
2.23555e-12
2.65901e-11
8.06498e-12
9.43362e-12
4.51947e-11
1.02058e-11
1.17567e-11
3.18574e-12
3.98035e-12
4.00599e-12
3.72732e-12
3.4721e-12
3.48799e-12
4.58012e-11
4.16212e-12
4.30877e-12
4.3266e-12
4.29907e-12
4.22713e-12
4.00051e-12
3.43169e-12
2.33637e-12
4.39825e-13
-2.01845e-12
-3.48715e-12
-4.0128e-12
-7.84862e-13
-1.23059e-10
-1.93676e-11
-1.29231e-11
-4.16614e-12
1.41623e-11
9.2707e-12
1.1285e-11
1.23374e-11
1.12102e-10
2.00955e-11
1.01296e-11
-6.164e-11
-1.495e-11
-1.82637e-11
-1.77666e-11
-5.94365e-11
2.98832e-12
1.37434e-11
2.30401e-11
6.72149e-11
-4.33751e-12
-1.10793e-12
-7.6006e-13
3.87238e-13
8.62656e-13
6.04153e-13
-2.88886e-13
-1.18648e-12
-1.8685e-12
-2.28102e-12
-2.71421e-12
-3.38267e-12
-4.00305e-12
5.46393e-12
-2.7324e-12
-2.43629e-12
-2.69841e-12
-3.23748e-12
-3.46148e-12
-2.22846e-12
-7.45426e-12
-9.31366e-12
-6.89592e-11
-1.67123e-11
-2.0415e-11
-1.35747e-10
-2.67727e-11
-3.10513e-11
-1.58062e-10
-1.92292e-11
-3.0376e-11
-2.37713e-10
-4.87404e-11
-4.55678e-11
-3.92581e-11
-1.67195e-10
-2.12113e-11
-1.58117e-11
-8.16811e-11
-1.4525e-11
-2.16699e-10
-2.89243e-10
-3.01261e-10
-3.15024e-10
-3.20937e-10
-3.02564e-10
-2.46739e-10
-1.93304e-10
-1.72199e-10
-1.63623e-10
-1.60716e-10
-1.50535e-10
-1.62189e-10
-1.89972e-10
-2.11617e-10
-2.15862e-10
-2.06573e-10
-1.92226e-10
-1.71411e-10
-2.24415e-10
-2.92375e-10
-3.03094e-10
-3.169e-10
-3.18641e-10
-2.59841e-10
-1.71837e-10
-1.43465e-10
-1.5005e-10
-1.53532e-10
-1.59312e-10
-1.50658e-10
-1.61313e-10
-1.87544e-10
-2.09135e-10
-2.15998e-10
-2.10458e-10
-2.01324e-10
-1.61723e-10
-2.34016e-10
-2.95988e-10
-3.05539e-10
-3.19472e-10
-3.08899e-10
-1.9936e-10
-1.30181e-10
-1.36093e-10
-1.44873e-10
-1.4188e-10
-1.52396e-10
-1.49381e-10
-1.60415e-10
-1.85167e-10
-2.06226e-10
-2.15585e-10
-2.138e-10
-2.10699e-10
-1.64264e-10
-2.44056e-10
-2.99412e-10
-3.08609e-10
-3.21122e-10
-2.78595e-10
-1.30795e-10
-9.64966e-11
-1.16404e-10
-1.25646e-10
-1.30209e-10
-1.40082e-10
-1.45535e-10
-1.59015e-10
-1.83406e-10
-2.03398e-10
-2.13945e-10
-2.16146e-10
-2.12495e-10
-1.99232e-10
-2.54056e-10
-3.02598e-10
-3.12335e-10
-3.18826e-10
-2.25106e-10
-6.70699e-11
-5.73205e-11
-7.37574e-11
-8.87759e-11
-1.15658e-10
-1.28452e-10
-1.40216e-10
-1.57116e-10
-1.82373e-10
-1.99998e-10
-2.0926e-10
-2.13421e-10
-2.11763e-10
-1.8039e-10
-2.63603e-10
-3.05894e-10
-3.16136e-10
-3.11317e-10
-1.68606e-10
-1.59906e-12
1.06297e-11
7.22463e-12
-2.38574e-11
-9.30221e-11
-1.26932e-10
-1.37019e-10
-1.55011e-10
-1.80675e-10
-2.07472e-10
-2.23753e-10
-2.13158e-10
-2.27623e-10
-6.17187e-11
-2.71776e-10
-3.0992e-10
-3.19391e-10
-3.01697e-10
-1.22369e-10
7.73371e-11
1.14751e-10
1.17028e-10
6.13617e-11
-5.72535e-11
-1.33595e-10
-1.39655e-10
-1.54627e-10
-1.9456e-10
-2.49991e-10
-2.58543e-10