/*--------------------------------*- C++ -*----------------------------------*\
| =========                 |                                                 |
| \\      /  F ield         | OpenFOAM: The Open Source CFD Toolbox           |
|  \\    /   O peration     | Version:  4.1                                   |
|   \\  /    A nd           | Web:      www.OpenFOAM.org                      |
|    \\/     M anipulation  |                                                 |
\*---------------------------------------------------------------------------*/
FoamFile
{
    version     2.0;
    format      ascii;
    class       volScalarField;
    location    "1";
    object      epsilon;
}
// * * * * * * * * * * * * * * * * * * * * * * * * * * * * * * * * * * * * * //

dimensions      [0 2 -3 0 0 0 0];

internalField   nonuniform List<scalar> 
1280
(
0.000348711
0.000182222
0.000309728
0.000312481
0.000177886
0.000301036
0.000287977
0.000289646
0.000151529
0.000248403
0.000246332
0.000128006
0.000223825
0.000236244
4.90103e-05
0.0013244
0.0029704
0.000824589
0.130997
5.4023
31.2379
968.6
1519.67
1553.97
1080.55
535.112
18.0185
0.919673
0.0468086
0.00782519
2.80251e-06
7.6357e-05
0.000330954
0.0100639
0.025022
0.162076
0.676951
4.86322
33.441
74.2258
6.0871
2.9248
1.26881
1.04982
0.163817
0.0708041
0.020502
0.0159054
0.000662189
0.000525617
0.00030668
5.08457e-05
0.000119646
7.09456e-05
0.000669046
0.00199725
0.00891796
0.00621835
0.188698
0.509946
67.3942
86.5279
88.3835
75.6108
64.9195
43.9254
33.084
0.0106695
7.01425e-05
6.66913e-06
2.89806e-06
0.00115345
0.00100112
0.0313206
10.2496
4.02295
22.6211
2.04834
63.238
111.019
2.88452
1.69154
0.292753
0.0516318
0.0415247
0.00644414
0.00127783
0.00217563
0.000554891
0.000347218
0.000333311
0.000151232
0.00028465
0.000281278
0.000270837
0.000146742
0.00028971
0.000290882
0.000169771
0.000291531
2.5251e-15
3.30386e-15
3.79232e-15
4.30964e-15
5.74591e-15
7.35531e-15
9.25281e-15
1.33506e-14
1.96715e-14
3.19504e-14
5.69643e-14
1.16274e-13
3.73166e-13
3.81099e-12
8.12719e-10
6.15604e-08
1.17546e-06
3.28098e-08
0.00635933
2.76676e-15
3.60271e-15
4.18506e-15
4.62797e-15
6.13213e-15
8.11616e-15
1.11134e-14
1.62248e-14
2.49969e-14
4.48315e-14
9.27456e-14
2.32956e-13
1.83604e-12
2.01169e-10
1.12947e-07
1.61306e-06
4.49637e-06
1.38496e-07
0.00894285
3.01604e-15
3.54784e-15
4.38846e-15
5.06936e-15
5.89293e-15
8.69714e-15
1.19652e-14
1.80721e-14
2.95043e-14
5.80741e-14
1.44484e-13
6.289e-13
2.544e-11
1.151e-08
1.80922e-06
3.31464e-06
7.51197e-06
6.03692e-07
0.0147055
3.03807e-15
3.81671e-15
4.57336e-15
5.26994e-15
5.79043e-15
9.1068e-15
1.40905e-14
2.12051e-14
3.597e-14
8.01886e-14
2.65998e-13
3.26246e-12
6.57865e-10
2.13536e-07
4.78838e-06
6.85726e-06
1.49121e-05
0.00162911
0.0229622
2.95022e-15
3.88561e-15
4.78069e-15
5.96935e-15
7.32278e-15
1.08864e-14
1.69397e-14
2.55446e-14
4.21793e-14
9.04512e-14
3.77818e-13
9.51168e-12
5.19364e-09
9.20809e-07
6.56517e-06
1.41261e-05
4.15514e-05
0.00825347
0.18939
3.17227e-15
3.93587e-15
4.69807e-15
6.44541e-15
8.61354e-15
1.32723e-14
2.05255e-14
3.24105e-14
5.6068e-14
1.19871e-13
6.92255e-13
2.63016e-11
7.2434e-09
5.89963e-07
1.07856e-05
3.24652e-05
0.000467414
0.105861
0.995509
3.52375e-15
4.7199e-15
5.92184e-15
7.02743e-15
1.02074e-14
1.59733e-14
2.63845e-14
5.055e-14
1.17195e-13
4.20216e-13
8.59535e-12
2.35768e-09
8.83812e-07
1.39962e-06
2.73911e-08
7.78392e-05
0.305506
5.86132
5.99476
4.17397e-15
5.07061e-15
5.96543e-15
7.92405e-15
1.09357e-14
1.68174e-14
2.95126e-14
7.12222e-14
2.69034e-13
3.73583e-12
1.03815e-09
7.39494e-07
9.71895e-05
0.000444603
0.000909946
0.630494
47.3377
104.46
4.87203
4.81345e-15
5.63382e-15
6.2892e-15
8.45943e-15
1.11953e-14
1.43656e-14
1.95807e-14
4.06333e-14
1.33001e-13
1.15455e-12
8.068e-11
2.26661e-08
8.77966e-07
5.29526e-06
1.58423e-05
0.0202324
3.74847
8.95996
2.02361
4.92369e-15
5.78734e-15
6.49979e-15
8.18083e-15
1.11904e-14
1.49374e-14
2.11429e-14
3.34662e-14
6.6797e-14
1.70557e-13
8.34962e-13
1.90907e-11
3.17954e-09
4.20713e-07
6.44078e-06
2.25014e-05
0.0264091
0.00712531
0.0427652
3.7479e-15
4.8566e-15
6.25702e-15
8.17706e-15
1.11157e-14
1.43651e-14
1.99316e-14
3.21032e-14
7.78824e-14
3.24213e-13
5.91671e-12
1.35059e-09
5.43809e-07
5.30276e-05
0.000251998
0.000666702
0.000175843
0.0223645
0.339085
3.76091e-15
5.44335e-15
6.45995e-15
8.69094e-15
1.26828e-14
1.76638e-14
2.8605e-14
5.56369e-14
1.7382e-13
1.33042e-12
1.13206e-10
5.28625e-08
1.50542e-05
0.000230443
0.000495846
0.00104179
0.0230462
0.110033
46.1391
3.7489e-15
5.22962e-15
6.35326e-15
8.73032e-15
1.19616e-14
1.82465e-14
2.97821e-14
6.86046e-14
2.7162e-13
4.89996e-12
2.1898e-09
1.26434e-06
9.5218e-05
0.000423896
0.000856876
0.0014043
5.32136
171.377
79.6925
3.38428e-15
4.97056e-15
5.8427e-15
8.00661e-15
1.10673e-14
1.70345e-14
2.52623e-14
6.93184e-14
2.33471e-13
1.35688e-12
1.07314e-10
4.63517e-08
7.11865e-06
8.80646e-05
0.000198993
0.000417103
0.0745707
24.0925
5.73165
3.17077e-15
4.70334e-15
5.42491e-15
7.01082e-15
1.02311e-14
1.4542e-14
2.50271e-14
5.20215e-14
1.28894e-13
4.2498e-13
6.18021e-12
2.54238e-09
3.84088e-07
3.51871e-06
8.28052e-06
2.54178e-05
0.000216169
0.00669282
0.326425
3.10595e-15
4.45982e-15
5.3214e-15
6.42252e-15
9.8685e-15
1.3254e-14
2.2255e-14
3.54244e-14
1.01953e-13
2.11449e-13
6.55512e-13
7.87133e-12
6.78937e-10
4.31336e-08
2.50323e-07
1.40997e-06
8.97823e-06
8.13201e-05
0.00298613
2.99123e-15
4.19526e-15
4.886e-15
5.76532e-15
8.40773e-15
1.1243e-14
1.68846e-14
2.55854e-14
5.8213e-14
9.92542e-14
1.77126e-13
6.84647e-13
5.49544e-12
1.69751e-09
9.80825e-08
5.25513e-07
4.29381e-06
6.35457e-08
0.000173009
2.92115e-15
3.98843e-15
5.35069e-15
5.48037e-15
6.71582e-15
9.24639e-15
1.43875e-14
2.29587e-14
3.9043e-14
5.80533e-14
9.21162e-14
2.22532e-13
7.67259e-13
7.49771e-12
1.83038e-10
2.47858e-09
2.52749e-06
1.34561e-07
7.32951e-06
2.77481e-15
3.65675e-15
4.86835e-15
5.45719e-15
6.42924e-15
8.96621e-15
1.17199e-14
1.72877e-14
2.60042e-14
3.3769e-14
4.32814e-14
1.03908e-13
1.68922e-13
3.46933e-13
5.85762e-12
1.02976e-08
4.46954e-07
1.35079e-09
1.16462e-06
2.71744e-15
3.39683e-15
4.30144e-15
4.80388e-15
5.7231e-15
7.19777e-15
1.05313e-14
1.49719e-14
1.70215e-14
2.48602e-14
2.96813e-14
6.12177e-14
5.63747e-14
6.55965e-14
4.82324e-13
5.99185e-12
1.50827e-08
6.39318e-11
1.24464e-06
136.763
17.4925
1.39204
1.48171
10.0019
4.80589
0.0920064
0.00825962
1.04166e-07
2.67953e-08
4.12161e-09
2.87495e-10
5.51999e-06
8.99216e-06
0.000470225
0.0148461
0.00343303
3.36158
159.512
33.3874
181.969
49.7717
12.0439
1.06296
0.0901256
0.00603757
0.000211845
7.09298e-06
5.94669e-07
6.91189e-08
1.39836e-08
4.05643e-09
1.7919e-10
1.62855e-10
7.44416e-06
0.00163464
0.000727313
0.822985
47.9439
62.3334
195.511
33.3041
9.0249
0.549774
0.0356583
0.00120005
3.78155e-05
5.43888e-07
9.2963e-09
2.25183e-10
3.59102e-10
9.11424e-11
4.42124e-11
1.95671e-10
0.00102634
0.00514547
0.135607
0.674374
26.1312
40.2298
242.231
90.6781
14.4119
0.505962
0.0319565
0.000494832
2.89466e-05
1.52869e-06
2.69426e-08
1.4359e-10
9.81407e-12
2.94067e-12
5.14625e-11
4.59681e-06
2.30435e-05
1.97046e-08
0.0016892
0.854999
25.9161
37.8345
297.708
98.3876
12.5364
0.300182
0.00221035
2.33006e-06
1.11733e-06
3.43353e-08
6.0831e-10
4.13059e-12
8.79853e-13
2.55931e-12
1.27441e-11
6.29427e-11
3.52151e-10
6.20829e-10
1.39826e-05
0.42349
4.21459
19.5602
387.633
159.985
15.3601
0.532049
0.00683667
3.99972e-05
1.16121e-07
5.73976e-10
1.51008e-10
3.25327e-11
7.03919e-12
2.95528e-12
2.01077e-12
6.87628e-12
7.92414e-12
4.88596e-08
4.72447e-05
0.60561
2.78041
18.5297
506.65
201.803
9.83453
0.339576
0.000937239
2.00431e-06
3.04568e-08
2.45987e-09
1.71103e-10
1.03911e-11
3.59571e-12
3.93703e-12
2.55248e-12
1.26954e-11
2.93615e-12
3.15886e-12
4.57598e-06
0.0442048
0.840573
11.6366
728.092
336.475
11.7129
0.440616
0.00455843
4.72944e-05
3.377e-07
6.3104e-09
2.58653e-10
1.43293e-11
4.0706e-12
4.33828e-12
2.92352e-12
3.66731e-12
2.30123e-12
7.77402e-13
1.03769e-08
0.00294774
0.464773
9.41229
1083.1
563.377
14.4685
0.280609
0.000583815
1.06136e-06
7.08015e-08
3.49285e-09
1.05736e-10
6.36017e-12
4.08373e-12
2.07976e-12
3.53696e-12
4.51778e-12
3.68862e-13
5.71921e-12
2.96316e-08
0.00402697
0.936942
6.6781
1583.23
958.186
26.0514
0.0778698
6.39055e-05
1.02729e-06
3.08301e-08
6.28019e-09
9.08173e-11
1.06582e-11
5.6022e-12
3.62828e-13
1.03747e-12
4.20392e-12
1.71065e-12
1.59537e-11
2.24988e-09
0.00264545
1.39706
5.64724
2334.94
1449.22
125.041
0.641999
0.0004645
3.66463e-05
1.56213e-07
2.89464e-09
1.54799e-10
8.02414e-12
5.67839e-12
3.2253e-12
2.07189e-12
5.16036e-12
3.16181e-12
8.77659e-11
5.04911e-09
0.00447002
1.74979
4.28017
3560.51
1949.38
632.739
8.21509
0.00497726
0.000177174
3.56383e-07
8.85602e-10
8.88505e-12
2.00405e-12
7.98357e-12
3.64501e-12
5.66987e-12
1.37941e-11
7.56199e-12
1.49153e-10
6.14096e-09
0.00376952
1.39016
3.04915
5697.94
3182.74
2507.67
182.522
0.162734
0.000413722
6.52231e-08
4.97566e-11
5.48968e-12
4.02829e-12
1.35226e-11
1.39271e-11
1.55173e-11
3.18938e-11
1.57661e-11
1.99282e-10
1.86544e-09
0.000164953
0.465434
2.1506
9106.85
5258.94
3605.96
1155.57
6.76452
1.82409e-07
7.60209e-09
3.46161e-10
2.27549e-11
1.42829e-11
3.80336e-11
5.87893e-11
5.14498e-11
7.8739e-11
4.46995e-11
5.24852e-11
8.76009e-09
7.66179e-06
0.195965
1.84007
10250
5168.32
3562.48
1914.18
313.579
0.00258468
1.98235e-06
4.71524e-08
2.18379e-10
1.67022e-10
3.25048e-10
4.46004e-10
3.77158e-10
3.97358e-10
2.97889e-10
1.33254e-10
5.63593e-08
1.844e-05
0.566609
1.09269
1117.63
1443.17
759.681
378.487
162.952
0.133355
7.31001e-05
5.46557e-08
1.75529e-08
1.01593e-08
9.72991e-09
9.52235e-09
8.30291e-09
7.69256e-09
6.51889e-09
4.83169e-09
6.05393e-09
5.88961e-05
1.49661
0.916073
54.7705
28.4159
23.8552
15.9715
3.84843
0.0466337
0.000145235
1.08613e-06
5.87383e-07
4.77529e-07
4.30869e-07
3.81993e-07
3.33376e-07
2.86271e-07
2.40969e-07
2.05494e-07
2.46706e-07
0.000229194
4.39219
0.738425
26.0428
9.88699
0.53664
0.243491
0.00133774
1.66653e-05
4.39924e-05
4.09027e-05
3.72932e-05
3.3755e-05
3.04378e-05
2.72585e-05
2.41131e-05
2.11448e-05
1.83262e-05
1.58592e-05
1.55368e-05
0.00191193
10.4092
1.50436
0.458707
0.195328
0.0179763
0.0227165
0.00895605
0.00873641
0.00844681
0.00819191
0.00795827
0.00767802
0.00742434
0.00718871
0.00690417
0.00657625
0.00624204
0.00590863
0.00583965
0.0626479
1.36895
1.68416
0.263897
5.09511
5.14794
5.14013
5.14297
5.15264
5.14524
5.14683
5.1555
5.14789
5.14787
5.15512
5.15396
5.14789
5.1478
5.14926
5.1432
5.18086
10.4628
0.416492
0.263995
5.12178
5.14266
5.14504
5.14894
5.14882
5.14988
5.14654
5.14697
5.15137
5.14625
5.14786
5.15575
5.1493
5.14886
5.15036
5.14382
5.17678
10.2382
0.412433
0.294213
0.0249168
0.0100034
0.00895167
0.00907522
0.00879426
0.00852589
0.00823566
0.00798734
0.00772785
0.00745781
0.00722409
0.00696009
0.00661578
0.00629318
0.00593855
0.00631025
0.0970631
2.04271
2.07046
1.28396
0.12755
0.0377107
0.00182715
9.00529e-05
0.00040799
2.94259e-05
4.07375e-05
3.73169e-05
3.35658e-05
3.03331e-05
2.731e-05
2.41898e-05
2.1083e-05
1.84073e-05
1.58193e-05
1.91885e-05
0.00354225
13.1264
1.94127
0.275229
2.23287
1.11723
0.836423
0.16543
0.00659067
0.000186571
5.88598e-06
7.94382e-07
4.68954e-07
4.03163e-07
3.53947e-07
3.08611e-07
2.67053e-07
2.31488e-07
1.94508e-07
3.31487e-07
0.000240655
5.51422
0.894228
243.172
369.089
171.076
14.4206
9.74711
0.0018802
5.90734e-06
1.27391e-07
1.45618e-08
8.5529e-09
6.95024e-09
6.47429e-09
6.12815e-09
5.87033e-09
5.55017e-09
6.95272e-09
5.3518e-06
4.66041e-05
1.73721
1.05971
7923.25
5865.58
3001.34
1351.73
305.822
0.238302
0.000142379
2.13138e-06
6.68628e-09
2.57599e-10
2.51064e-10
2.41307e-10
3.22573e-10
2.70819e-10
2.64161e-10
8.242e-10
1.6089e-06
1.41085e-05
0.734314
1.09675
13137.5
7398.84
4567.06
1736.16
49.395
0.00527533
1.09317e-05
9.38117e-07
1.92767e-07
6.63122e-10
2.83827e-11
3.52144e-11
5.58722e-11
4.25342e-11
3.9761e-11
1.35842e-10
8.63545e-07
2.46733e-06
0.227781
1.78155
7290.64
4383.25
3674.24
513.42
0.867575
0.000444783
6.7606e-05
2.23388e-06
2.55784e-07
5.1824e-08
1.35761e-10
1.62131e-11
1.33868e-11
1.18808e-11
1.31819e-11
2.10004e-11
2.65551e-08
0.00169325
0.434918
2.13634
3729.77
2022.68
2099.68
180.975
0.0518543
0.000651073
9.48233e-05
3.75116e-06
8.01214e-07
3.50489e-08
1.91087e-09
2.77768e-11
7.48749e-12
7.13744e-12
6.73869e-12
7.76919e-12
3.24253e-09
0.00171471
0.731043
3.09024
2338.18
1468.54
1138.37
114.094
0.213503
0.000892024
0.000108542
1.15738e-05
1.79208e-06
2.44538e-08
7.5651e-09
1.14535e-09
4.80764e-11
3.3662e-12
3.87985e-12
2.15114e-11
2.0294e-09
0.00149029
0.986648
4.65527
1489.44
1094.58
476.161
27.8319
0.026246
0.000335231
3.50088e-05
1.30428e-06
2.38055e-06
2.7745e-07
2.50335e-08
1.79462e-09
1.34786e-10
1.13347e-11
1.42169e-12
6.14187e-10
3.07416e-09
0.0013485
0.866821
5.05476
908.56
768.652
152.671
4.51038
0.00553768
0.00109443
0.00018427
2.72118e-05
1.50044e-06
2.49753e-07
2.3875e-08
1.99363e-09
1.29614e-10
9.60076e-12
4.0353e-12
7.92369e-12
5.11709e-07
0.000595076
0.564261
8.0559
604.401
451.079
67.5841
4.28135
0.00644696
0.000674498
0.000114861
1.79352e-05
3.24589e-06
3.17869e-07
3.40832e-08
2.07165e-09
7.90644e-11
6.5443e-12
1.66712e-12
3.29567e-12
0.000331623
0.00166073
0.341796
8.33892
437.847
296.039
46.8035
2.99018
0.00572443
0.000315864
6.08123e-05
6.9388e-06
2.8859e-06
2.45312e-07
2.45744e-08
1.87627e-09
1.01777e-10
8.99622e-12
2.927e-12
2.53684e-06
1.44376e-05
0.121746
1.09205
12.0741
322.74
202.976
38.7892
2.75424
0.00915362
0.000404202
4.09963e-05
1.19355e-05
2.46955e-06
1.81109e-07
1.25385e-08
9.15288e-10
3.84194e-11
6.17667e-12
7.7529e-12
8.16725e-08
4.39538e-07
0.166998
1.85193
14.8794
262.021
146.091
28.3282
2.2051
0.00647104
0.00041886
5.09043e-05
1.19363e-05
2.11379e-06
1.20466e-07
9.60357e-09
9.43782e-10
2.4283e-11
3.08074e-12
6.91832e-07
3.46807e-06
0.000961082
7.31813
34.182
85.9821
192.833
101.683
17.0884
1.83252
0.00378322
0.000385889
5.04887e-05
1.17645e-05
1.77154e-06
1.32284e-07
6.29141e-09
3.62371e-10
2.09335e-11
6.51647e-11
2.65222e-09
2.66942e-06
0.00676759
19.236
125.299
231.911
191.207
67.5984
15.7167
1.02016
0.000236386
0.000177481
2.13786e-05
1.09962e-05
1.47223e-06
1.16818e-07
5.24174e-09
3.33003e-10
6.87964e-11
1.2829e-09
3.58491e-08
1.37014e-06
0.0009503
8.11107
154.888
228.57
174.206
44.6105
7.05355
0.115
0.000705643
0.000239744
4.69873e-05
8.82884e-06
1.46317e-06
1.20702e-07
1.59106e-10
1.0324e-10
1.46737e-09
7.51028e-08
5.11193e-07
1.63794e-05
0.00396367
21.2473
157.434
225.921
97.2698
30.0516
0.176763
0.205739
0.0361454
0.095211
0.0158176
4.49041e-07
1.8394e-09
5.32236e-10
1.38254e-08
3.18282e-07
5.814e-08
0.000221416
0.275144
0.707386
1.61441
35.3885
158.798
131.768
)
;

boundaryField
{
    outletWall
    {
        type            zeroGradient;
    }
    fineWalls
    {
        Cmu             0.09;
        kappa           0.41;
        E               9.8;
        type            epsilonWallFunction;
        value           nonuniform List<scalar> 
60
(
5.4023
0.130997
0.000824589
0.0029704
0.0013244
4.90103e-05
0.000236244
0.000223825
0.000128006
0.000246332
0.000248403
0.000151529
0.000289646
0.000287977
0.000301036
0.000177886
0.000312481
0.000309728
0.000182222
0.000348711
0.509946
0.188698
0.00621835
0.00891796
0.00199725
0.000669046
7.09456e-05
0.000119646
5.08457e-05
0.00030668
0.000525617
0.000662189
0.0159054
0.020502
0.0708041
0.163817
1.04982
1.26881
2.9248
6.0871
0.000291531
0.000169771
0.000290882
0.00028971
0.000146742
0.000270837
0.000281278
0.00028465
0.000151232
0.000333311
0.000347218
0.000554891
0.00217563
0.00127783
0.00644414
0.0415247
0.0516318
0.292753
1.69154
2.88452
)
;
    }
    fineFrontAndBack
    {
        type            zeroGradient;
    }
    fineplugLeft
    {
        type            cyclicAMI;
        value           nonuniform List<scalar> 
20
(
41.5551
134.298
3.66191
0.138137
0.044292
0.00538058
0.00201997
7.06068e-05
1.52716e-05
5.63799e-07
0.00156506
0.00936179
0.190542
2.13039
110.867
224.112
311.98
305.047
207.714
115.658
)
;
    }
    fineplugRight
    {
        type            cyclicAMI;
        value           nonuniform List<scalar> 
20
(
118.893
144.344
45.9875
16.4137
13.5498
9.0052
6.61699
0.00213394
1.42831e-05
1.34489e-06
5.80037e-07
0.000230692
0.000200584
0.0175804
2.12609
0.833507
4.68881
0.551078
36.6889
100.02
)
;
    }
    inletOutletLeft
    {
        type            cyclicAMI;
        value           nonuniform List<scalar> 
20
(
41.5551
134.298
3.66191
0.138137
0.044292
0.00538058
0.00201997
7.06068e-05
1.52716e-05
5.63799e-07
0.00156506
0.00936179
0.190542
2.13039
110.867
224.112
311.98
305.047
207.714
115.658
)
;
    }
    inletLeft
    {
        type            fixedValue;
        value           uniform 2180.89;
    }
    inletWallsLeft
    {
        Cmu             0.09;
        kappa           0.41;
        E               9.8;
        type            epsilonWallFunction;
        value           nonuniform List<scalar> 
40
(
0.263897
0.458707
26.0428
54.7705
1117.63
10250
9106.85
5697.94
3560.51
2334.94
1583.23
1083.1
728.092
506.65
387.633
297.708
242.231
195.511
181.969
136.763
33.3874
62.3334
40.2298
37.8345
19.5602
18.5297
11.6366
9.41229
6.6781
5.64724
4.28017
3.04915
2.1506
1.84007
1.09269
0.916073
0.738425
1.50436
1.68416
0.416492
)
;
    }
    inletFacesLeft
    {
        type            zeroGradient;
    }
    inletOutletRight
    {
        type            cyclicAMI;
        value           nonuniform List<scalar> 
20
(
118.893
144.344
45.9875
16.4137
13.5498
9.0052
6.61699
0.00213394
1.42831e-05
1.34489e-06
5.80037e-07
0.000230692
0.000200584
0.0175804
2.12609
0.833507
4.68881
0.551078
36.6889
100.02
)
;
    }
    inletRight
    {
        type            fixedValue;
        value           uniform 2180.89;
    }
    inletWallsRight
    {
        Cmu             0.09;
        kappa           0.41;
        E               9.8;
        type            epsilonWallFunction;
        value           nonuniform List<scalar> 
40
(
97.2698
174.206
191.207
192.833
262.021
322.74
437.847
604.401
908.56
1489.44
2338.18
3729.77
7290.64
13137.5
7923.25
243.172
0.275229
1.28396
0.294213
0.263995
0.412433
2.07046
1.94127
0.894228
1.05971
1.09675
1.78155
2.13634
3.09024
4.65527
5.05476
8.0559
8.33892
12.0741
14.8794
85.9821
231.911
228.57
225.921
131.768
)
;
    }
    inletFacesRight
    {
        type            zeroGradient;
    }
}


// ************************************************************************* //
