/*--------------------------------*- C++ -*----------------------------------*\
| =========                 |                                                 |
| \\      /  F ield         | OpenFOAM: The Open Source CFD Toolbox           |
|  \\    /   O peration     | Version:  4.1                                   |
|   \\  /    A nd           | Web:      www.OpenFOAM.org                      |
|    \\/     M anipulation  |                                                 |
\*---------------------------------------------------------------------------*/
FoamFile
{
    version     2.0;
    format      ascii;
    class       volScalarField;
    location    "1";
    object      k;
}
// * * * * * * * * * * * * * * * * * * * * * * * * * * * * * * * * * * * * * //

dimensions      [0 2 -2 0 0 0 0];

internalField   nonuniform List<scalar> 
1280
(
0.123697
0.117197
0.114297
0.114973
0.11533
0.112148
0.108881
0.109301
0.103636
0.0986625
0.0981134
0.0926124
0.0920422
0.0954161
0.0488322
0.301112
0.51593
0.320632
6.44004
76.8718
271.412
517.349
503.714
313.493
171.276
86.6971
0.838855
0.00317271
5.52504e-06
8.0837e-08
3.76236e-13
3.799e-11
0.122064
0.533503
1.18742
4.65427
13.8365
108.258
186.91
198.039
122.406
51.0637
29.2626
25.7904
10.9927
4.2732
1.8703
1.57911
0.278944
0.162615
0.113546
0.0503925
0.0606243
0.042789
0.190993
0.582305
1.07372
0.844302
8.21409
23.4357
82.4951
102.325
112.295
80.7944
53.0078
24.2986
13.8181
0.0178053
0.000578129
0.000267026
8.0061e-07
0.000516537
0.00121642
0.0466584
2.2087
19.07
19.7469
110.265
77.2378
68.9087
50.5938
35.4462
16.0762
3.46199
2.994
1.26267
0.294011
0.419216
0.246218
0.123343
0.120028
0.103501
0.108041
0.107186
0.104517
0.101442
0.109318
0.109612
0.111795
0.109775
1.04038e-12
1.10041e-12
1.08475e-12
1.05506e-12
9.65653e-13
8.98261e-13
8.3202e-13
6.65345e-13
5.52789e-13
4.06366e-13
2.86073e-13
1.84694e-13
1.18172e-13
1.37586e-13
2.27022e-13
1.20573e-12
1.03792e-11
3.62516e-11
5.43152e-06
1.10171e-12
1.1536e-12
1.10666e-12
1.07424e-12
9.81536e-13
9.39641e-13
8.72263e-13
6.62492e-13
5.23341e-13
3.54309e-13
2.45215e-13
1.48404e-13
7.99495e-14
1.6825e-13
9.41942e-13
1.59862e-11
1.17254e-10
3.45954e-09
8.75591e-05
1.01961e-12
1.05555e-12
1.03459e-12
1.03947e-12
9.95391e-13
8.21659e-13
7.20357e-13
6.95789e-13
5.37758e-13
2.97434e-13
1.80687e-13
5.22422e-14
1.3132e-13
4.77672e-13
8.84052e-12
1.17874e-10
1.29157e-07
7.94042e-06
0.00133391
1.03905e-12
1.0608e-12
1.01773e-12
9.13712e-13
9.02004e-13
8.26065e-13
6.72975e-13
3.99522e-13
3.08305e-13
2.47402e-13
1.62025e-13
1.18465e-13
1.73481e-13
2.56377e-12
4.90144e-11
7.3833e-08
0.000302781
0.0572806
0.100009
1.02746e-12
1.07623e-12
1.00741e-12
8.67688e-13
7.64471e-13
5.90417e-13
4.21114e-13
3.25122e-13
2.16406e-13
1.82919e-13
1.16771e-13
1.29051e-13
2.53806e-13
6.07613e-12
3.45549e-09
5.4429e-05
0.057425
2.84652
14.9603
1.02713e-12
1.06702e-12
1.00238e-12
9.31939e-13
7.36916e-13
5.02832e-13
3.39498e-13
2.18774e-13
5.36169e-14
5.36219e-14
1.01125e-13
1.27713e-13
2.1293e-13
2.69559e-12
2.63464e-10
1.12061e-05
0.0639885
4.5376
27.5171
9.93979e-13
1.05943e-12
9.9427e-13
8.54265e-13
7.01268e-13
5.98626e-13
2.71467e-13
1.3707e-13
3.90861e-15
1.52176e-13
1.18843e-13
1.47301e-13
7.35053e-13
3.06763e-11
3.61242e-06
0.002851
9.75526
141.677
197.161
9.79455e-13
1.03723e-12
9.23288e-13
8.44359e-13
7.26428e-13
3.9692e-13
2.32921e-13
2.94608e-14
3.81504e-15
1.1759e-13
1.27353e-13
5.68426e-13
1.57345e-11
1.24012e-09
0.000468929
1.38587
168.642
486.552
355.483
1.02694e-12
1.06822e-12
9.01188e-13
8.06902e-13
6.93739e-13
5.02824e-13
3.91164e-13
2.73071e-13
2.23511e-14
1.04827e-13
1.38409e-13
8.78039e-13
1.21611e-11
3.84599e-10
5.48914e-06
0.00898375
5.54741
57.8284
15.026
9.00653e-13
9.39846e-13
8.71352e-13
7.64679e-13
7.19086e-13
5.43106e-13
4.91079e-13
4.94017e-13
2.2642e-13
1.49391e-13
8.84713e-14
1.45016e-13
4.16281e-13
3.96529e-12
2.90745e-10
9.6828e-06
0.00801133
0.0313991
0.00350079
1.00806e-12
1.04028e-12
9.8678e-13
8.61666e-13
7.11828e-13
7.05824e-13
5.26674e-13
5.2968e-13
2.25922e-13
1.73629e-13
1.20454e-13
1.49309e-13
5.74905e-13
1.16723e-11
1.50823e-10
5.85607e-09
0.00023386
0.0763191
0.433375
1.03443e-12
1.11524e-12
1.07319e-12
1.06698e-12
9.29939e-13
6.93951e-13
4.71119e-13
3.47124e-13
1.09843e-13
1.27571e-13
1.23769e-13
2.36872e-13
3.85929e-12
9.90129e-11
2.5691e-09
1.14518e-06
0.0375843
17.8123
115.787
1.0162e-12
1.08206e-12
9.92284e-13
9.53053e-13
8.14217e-13
6.77554e-13
5.0557e-13
2.09123e-13
8.2313e-14
1.19236e-13
1.57271e-13
9.90357e-13
1.63466e-11
4.88026e-10
1.71902e-07
0.00304122
20.1495
267.09
223.238
1.0018e-12
1.03612e-12
1.04138e-12
9.89227e-13
1.03113e-12
8.89441e-13
7.6216e-13
4.9833e-13
1.10346e-13
1.21002e-13
1.21182e-13
2.79191e-13
5.58294e-12
1.58965e-10
5.62824e-08
0.00261435
1.4636
50.945
11.8114
1.03789e-12
1.03889e-12
1.04358e-12
9.91985e-13
1.00337e-12
8.41101e-13
5.53504e-13
4.93755e-13
2.09921e-13
1.38815e-13
1.20763e-13
3.3147e-13
1.00994e-11
3.56604e-10
3.2337e-09
0.000148543
0.0831591
2.8947
0.679352
1.00279e-12
1.02274e-12
1.01809e-12
9.79084e-13
9.27812e-13
7.62768e-13
6.42959e-13
4.54996e-13
3.24747e-13
1.50745e-13
1.26865e-13
1.85466e-13
1.47175e-12
2.23168e-11
4.88154e-10
1.64997e-08
6.87514e-07
0.00173398
0.0045189
1.0543e-12
1.02229e-12
1.05762e-12
9.96118e-13
1.01182e-12
1.00246e-12
7.9658e-13
7.74921e-13
3.51698e-13
4.84611e-13
1.79379e-13
1.43707e-13
2.18999e-13
1.75564e-12
4.14486e-11
2.70458e-10
1.27947e-09
1.70936e-11
0.000106152
1.02474e-12
1.06098e-12
1.01785e-12
9.91674e-13
9.72034e-13
8.8462e-13
7.91831e-13
6.01175e-13
4.30835e-13
3.82621e-13
4.40471e-13
1.82288e-13
1.48904e-13
2.99082e-13
4.91312e-12
2.43323e-11
1.14221e-10
3.8879e-12
0.000132794
1.05505e-12
1.04623e-12
1.05115e-12
1.10502e-12
1.09679e-12
9.70921e-13
9.04126e-13
9.46805e-13
8.06897e-13
5.06995e-13
2.72997e-13
1.67229e-13
1.58835e-13
1.62403e-13
7.3527e-13
2.13448e-12
7.94762e-12
4.77496e-13
7.846e-05
1.03715e-12
1.06535e-12
1.02547e-12
9.94398e-13
9.95629e-13
9.77723e-13
8.86849e-13
7.86372e-13
6.61627e-13
5.90375e-13
5.37101e-13
3.63218e-13
2.85159e-13
2.58609e-13
1.18387e-12
1.95539e-12
9.28376e-13
8.41154e-13
6.18556e-05
61.3134
35.287
14.1869
2.29608
1.99656
0.778621
0.00428324
2.8494e-05
1.5007e-12
3.8622e-13
2.19157e-12
1.57504e-12
1.54476e-08
0.00620907
0.00710715
0.0725891
0.77314
3.1802
90.7071
23.9496
74.1722
39.1934
4.76701
0.360843
0.014535
0.000344827
3.59087e-06
1.84506e-08
1.33296e-09
5.46016e-11
2.56373e-12
9.5974e-13
1.60253e-12
3.37167e-13
0.000159571
0.0016298
0.618434
3.10019
65.7323
36.3125
77.8078
33.4331
5.92035
0.557241
0.0341331
0.00225402
0.000128581
4.26467e-06
1.98223e-07
1.48173e-08
1.42502e-10
1.64682e-11
4.12684e-12
7.44359e-13
5.42039e-13
7.74441e-07
0.414498
2.07786
34.6411
27.119
89.7558
44.384
6.28378
0.326659
0.0171036
6.60331e-05
4.58554e-08
1.049e-07
2.25859e-12
1.28321e-12
3.81977e-12
8.62738e-12
3.34847e-12
4.80073e-13
2.23119e-12
3.46839e-14
6.41115e-08
4.86543
41.0562
26.0316
102.984
51.1014
6.09363
0.325815
0.00731705
0.000243982
9.04743e-08
4.00521e-11
3.02517e-11
2.65403e-11
5.96062e-12
9.78457e-12
5.21781e-12
1.88676e-12
7.42693e-13
1.64829e-12
0.000321886
5.24563
26.9883
16.7684
122.797
59.5594
6.59387
0.216573
0.00265938
1.58141e-05
3.83707e-08
1.00872e-09
3.10237e-10
3.60332e-11
5.1367e-12
1.06864e-11
7.60385e-12
6.55661e-12
6.27363e-12
7.82824e-13
6.25549e-05
5.38473
21.935
16.1742
146.796
62.5962
6.65358
0.187283
0.00143471
2.57143e-06
5.78e-08
9.36709e-09
6.82498e-10
5.7319e-11
7.68657e-12
1.422e-11
9.4995e-12
6.49265e-12
5.70837e-12
2.72351e-12
1.40589e-06
0.121031
2.87456
11.8612
186.939
81.128
7.61435
0.178769
0.00334156
3.51782e-05
6.90304e-07
2.64978e-08
1.18266e-09
7.08573e-11
8.86145e-12
2.11902e-11
1.51493e-11
8.10266e-12
5.77592e-12
6.97688e-11
6.21971e-08
0.00590976
0.711482
10.2969
243.606
128.111
8.34201
0.0935173
6.88542e-05
7.95457e-08
5.62921e-11
6.06206e-10
1.05083e-13
1.257e-11
6.86375e-12
2.66775e-11
2.3363e-11
1.02346e-11
8.36102e-12
9.31044e-11
8.96726e-08
0.0069968
1.09005
8.19114
313.765
221.019
12.622
0.0827453
0.00010346
1.55377e-08
1.53021e-11
1.05352e-12
3.82978e-12
2.24552e-11
9.71832e-12
3.59368e-11
2.89439e-11
1.40798e-11
9.56262e-12
2.21335e-10
0.0014637
0.00733744
1.66216
7.32487
406.53
355.935
30.3736
0.140387
0.000427684
2.28511e-08
3.20759e-11
1.58747e-12
8.11373e-12
3.52823e-11
1.26783e-11
6.04524e-11
3.92659e-11
1.67996e-11
2.14942e-11
5.13884e-10
0.00188016
0.00942517
2.60041
6.08906
538.58
578.96
210.018
2.32552
0.00720224
8.42474e-09
1.12471e-11
4.10127e-13
9.17912e-11
5.7385e-11
2.06624e-11
7.86448e-11
6.82257e-11
2.43745e-11
2.61519e-11
1.26898e-09
0.00187099
0.0093792
2.61544
4.85693
736.865
1080.07
1059.72
115.4
0.692294
3.41348e-07
5.53856e-10
7.47415e-12
1.7029e-10
9.79836e-11
3.24384e-11
1.15082e-10
9.11838e-11
5.0114e-11
4.13425e-11
3.50419e-09
5.1475e-05
0.000258039
0.586596
3.84841
1007.29
2011.78
1876.05
787.524
12.3213
8.1228e-07
5.49422e-08
1.0996e-10
2.99545e-10
1.55313e-10
1.03256e-10
2.892e-10
2.02659e-10
1.25072e-10
7.8955e-11
4.76859e-09
1.40556e-05
7.04552e-05
0.168759
3.46842
1089.91
2147.7
2089.89
1341.85
388.55
0.0115611
6.63943e-06
7.16195e-09
2.31733e-09
7.46745e-10
4.54396e-10
7.3856e-10
5.34e-10
3.44077e-10
2.05963e-10
7.8655e-11
2.66273e-05
0.000133481
0.301201
2.45042
248.757
710.679
765.421
548.782
250.941
1.07335
0.000724641
2.15079e-06
5.67241e-08
1.01938e-08
4.92215e-09
3.77427e-09
2.68084e-09
1.9214e-09
1.22107e-09
6.74477e-10
2.50702e-10
0.000308014
0.608569
2.17869
33.3125
8.72454
33.8534
30.4482
7.03493
0.0353087
7.20412e-05
7.92366e-07
7.52742e-08
5.02555e-08
4.27552e-08
3.547e-08
2.81214e-08
2.13132e-08
1.53484e-08
1.05505e-08
2.05207e-08
0.000845523
1.64015
1.88704
20.294
5.9616
0.437516
0.357548
0.00290085
4.04825e-06
3.91502e-06
1.16413e-06
1.08577e-06
9.74782e-07
8.67803e-07
7.64927e-07
6.63575e-07
5.70235e-07
4.82769e-07
4.11936e-07
1.07893e-06
0.00284924
3.4282
3.03256
1.37383
0.00611361
0.000122687
0.000160227
3.36495e-05
5.78541e-05
5.60198e-05
5.42647e-05
5.25033e-05
5.07823e-05
4.90794e-05
4.73874e-05
4.55165e-05
4.34023e-05
4.11153e-05
3.91159e-05
0.000106541
0.0165904
0.614372
3.26962
0.950309
0.00707968
0.00708212
0.0070797
0.00707873
0.00707461
0.00707542
0.00707369
0.00706979
0.00706974
0.00706807
0.00706825
0.00706842
0.00706413
0.00706087
0.00705979
0.00706164
0.00716999
0.0273962
1.28819
0.950545
0.00712136
0.00708396
0.00707985
0.00707717
0.00707665
0.00707362
0.00707349
0.00707236
0.00706702
0.00706893
0.00706797
0.00706386
0.00706283
0.00706085
0.00705957
0.00706066
0.0071027
0.0270356
1.27981
1.02176
0.0003305
6.54471e-05
5.81649e-05
5.95877e-05
5.7294e-05
5.58994e-05
5.42277e-05
5.23403e-05
5.04889e-05
4.90328e-05
4.72683e-05
4.53971e-05
4.331e-05
4.10754e-05
3.97066e-05
0.000218985
0.0377319
0.934991
3.7522
2.72863
0.115708
0.0188229
0.000248363
1.28625e-05
0.00171448
8.27686e-07
1.17019e-06
5.69295e-07
9.48445e-07
8.70737e-07
7.74477e-07
6.73593e-07
5.75048e-07
4.89659e-07
4.11497e-07
6.39801e-07
0.00334634
4.22604
3.59445
0.977324
2.282
2.69817
1.41997
0.202985
0.0761826
0.00735774
0.000640175
2.68076e-05
1.27321e-06
1.03725e-07
4.14074e-08
3.11916e-08
2.36551e-08
1.76343e-08
1.21142e-08
1.24436e-08
0.000666026
2.01591
2.14392
89.9881
330.742
140.73
37.4679
3.39978
0.00209482
0.0003152
9.34997e-05
5.06004e-06
3.31199e-07
4.69651e-08
8.74411e-09
3.82468e-09
2.58787e-09
1.84273e-09
6.64438e-10
4.58262e-05
0.000229723
0.713953
2.40087
918.004
1909.57
1526.19
886.232
267.807
0.483795
0.00130211
1.2262e-06
4.81765e-08
4.07377e-08
1.08351e-08
2.4129e-09
8.24584e-10
6.07183e-10
4.39353e-10
4.06863e-11
1.85192e-05
9.28359e-05
0.308387
2.45649
1286.03
2474.51
2019.22
1018.57
63.5561
0.0308111
0.000161216
1.13666e-07
1.46878e-10
6.59124e-10
2.91115e-09
1.08973e-09
3.67726e-10
2.6572e-10
1.82997e-10
1.13364e-11
8.36637e-06
4.19107e-05
0.196723
3.39449
868.466
1430.25
1469.67
239.281
0.827653
8.42464e-05
3.72703e-08
5.40621e-10
1.88221e-11
4.13175e-12
6.08275e-10
5.81815e-10
1.83963e-10
1.19128e-10
8.37769e-11
1.30304e-11
2.62974e-07
0.0338951
0.203414
3.83139
555.517
684.749
825.857
66.1374
0.118572
2.9046e-06
1.38253e-10
7.99287e-11
1.19976e-11
1.94564e-12
5.97851e-12
3.01849e-10
1.13088e-10
4.91693e-11
4.24685e-11
1.69276e-12
2.48241e-07
0.0249954
1.11935
4.90047
406.906
407.293
459.614
16.1516
0.0231856
1.2001e-06
7.70756e-11
3.77884e-11
8.26176e-12
1.97691e-12
9.91432e-13
8.38769e-12
2.63481e-11
4.87595e-11
1.82754e-11
3.06079e-08
1.53415e-07
0.0190927
1.25048
6.4398
301.248
298.663
102.553
1.55822
0.00331288
3.83615e-07
2.09608e-10
3.13392e-11
5.27428e-12
1.55663e-12
6.99981e-13
1.04032e-12
6.43067e-12
3.39028e-11
2.30407e-11
2.38969e-11
6.44942e-08
0.00962176
0.994185
6.80314
216.676
216.191
12.9626
0.0417486
7.9674e-05
5.18659e-09
2.43667e-10
4.31699e-11
7.43936e-12
1.67971e-12
6.73208e-13
6.74268e-13
1.79387e-12
1.86655e-11
1.9498e-11
3.01205e-06
1.5099e-05
0.00679605
0.624048
9.28222
165.117
124.713
3.21161
0.0169113
0.000113568
2.57642e-08
1.19524e-10
3.26983e-11
4.84953e-12
1.47332e-12
9.2624e-13
9.15833e-13
7.21417e-13
1.16568e-11
1.70883e-11
2.31853e-09
7.46686e-05
0.00866501
0.522433
9.49837
133.186
93.5112
3.18416
0.0156391
0.000151637
1.9048e-07
2.5667e-10
2.83025e-11
3.90944e-12
1.01562e-12
6.73174e-13
6.62209e-13
4.71353e-13
8.77133e-12
1.51394e-11
5.85115e-11
0.00015958
0.415318
4.5951
12.1566
108.679
76.5021
4.82533
0.0468857
0.000586431
3.38884e-07
1.30662e-10
1.96245e-11
3.29237e-12
1.00692e-12
6.43179e-13
5.97513e-13
4.19972e-13
6.73737e-12
1.33029e-11
6.80979e-06
3.41372e-05
1.83362
15.6145
13.9733
94.5802
67.1835
4.85662
0.0388265
0.00045381
4.70156e-07
1.03066e-09
3.24715e-11
3.2012e-12
1.13464e-12
9.22204e-13
8.96302e-13
2.22133e-13
5.50783e-12
6.11247e-13
1.71727e-14
0.0141571
32.3094
92.2658
44.9967
77.0957
56.1894
5.19361
0.0386249
0.000408646
8.39437e-08
1.97106e-10
2.17614e-11
2.85766e-12
7.94771e-13
6.5811e-13
7.00385e-13
2.63652e-12
2.87184e-12
6.78448e-13
1.16185e-10
0.000949641
51.125
153.709
87.1881
76.6618
35.4498
4.43847
0.0142095
0.0002506
1.21095e-08
1.08631e-10
1.44486e-11
2.39061e-12
9.28236e-13
1.04602e-12
7.74288e-13
1.33756e-12
1.81744e-12
1.71873e-10
7.89085e-07
0.000219694
11.2202
140.629
86.3486
72.0472
39.4551
0.885398
0.000384891
1.44143e-06
1.36483e-09
5.45216e-11
6.16506e-12
2.3848e-12
1.0525e-12
2.37179e-13
5.88171e-14
1.26185e-09
4.62929e-06
8.99489e-10
1.58517e-07
0.000188008
8.44064
112.149
85.6801
48.8534
11.3249
1.01015
0.232393
0.275919
0.0748772
0.000238236
1.39396e-13
4.63894e-06
2.09055e-13
1.32853e-13
1.80284e-12
5.62005e-08
0.000206177
0.100603
0.196825
0.294907
12.867
83.4597
59.8111
)
;

boundaryField
{
    outletWall
    {
        type            zeroGradient;
    }
    fineWalls
    {
        type            kqRWallFunction;
        value           nonuniform List<scalar> 
60
(
76.8718
6.44004
0.320632
0.51593
0.301112
0.0488322
0.0954161
0.0920422
0.0926124
0.0981134
0.0986625
0.103636
0.109301
0.108881
0.112148
0.11533
0.114973
0.114297
0.117197
0.123697
23.4357
8.21409
0.844302
1.07372
0.582305
0.190993
0.042789
0.0606243
0.0503925
0.113546
0.162615
0.278944
1.57911
1.8703
4.2732
10.9927
25.7904
29.2626
51.0637
122.406
0.109775
0.111795
0.109612
0.109318
0.101442
0.104517
0.107186
0.108041
0.103501
0.120028
0.123343
0.246218
0.419216
0.294011
1.26267
2.994
3.46199
16.0762
35.4462
50.5938
)
;
    }
    fineFrontAndBack
    {
        type            zeroGradient;
    }
    fineplugLeft
    {
        type            cyclicAMI;
        value           nonuniform List<scalar> 
20
(
58.7674
109.948
24.1957
3.38581
0.988926
0.243169
0.111668
0.0244128
8.85804e-12
1.82851e-12
1.61677e-08
1.10501e-06
0.000657338
0.0991806
17.9623
35.8525
64.5356
112.092
131.699
103.333
)
;
    }
    fineplugRight
    {
        type            cyclicAMI;
        value           nonuniform List<scalar> 
20
(
64.3479
87.2328
32.7526
16.3948
10.759
4.9402
2.76379
0.0035611
0.000115626
5.34053e-05
1.60122e-07
0.000107019
0.000243283
0.00551657
0.501642
4.03473
4.13529
22.8611
24.5075
52.8644
)
;
    }
    inletOutletLeft
    {
        type            cyclicAMI;
        value           nonuniform List<scalar> 
20
(
58.7674
109.948
24.1957
3.38581
0.988926
0.243169
0.111668
0.0244128
8.85804e-12
1.82851e-12
1.61677e-08
1.10501e-06
0.000657338
0.0991806
17.9623
35.8525
64.5356
112.092
131.699
103.333
)
;
    }
    inletLeft
    {
        type            fixedValue;
        value           uniform 1.13;
    }
    inletWallsLeft
    {
        type            kqRWallFunction;
        value           nonuniform List<scalar> 
40
(
0.950309
1.37383
20.294
33.3125
248.757
1089.91
1007.29
736.865
538.58
406.53
313.765
243.606
186.939
146.796
122.797
102.984
89.7558
77.8078
74.1722
61.3134
23.9496
36.3125
27.119
26.0316
16.7684
16.1742
11.8612
10.2969
8.19114
7.32487
6.08906
4.85693
3.84841
3.46842
2.45042
2.17869
1.88704
3.03256
3.26962
1.28819
)
;
    }
    inletFacesLeft
    {
        type            zeroGradient;
    }
    inletOutletRight
    {
        type            cyclicAMI;
        value           nonuniform List<scalar> 
20
(
64.3479
87.2328
32.7526
16.3948
10.759
4.9402
2.76379
0.0035611
0.000115626
5.34053e-05
1.60122e-07
0.000107019
0.000243283
0.00551657
0.501642
4.03473
4.13529
22.8611
24.5075
52.8644
)
;
    }
    inletRight
    {
        type            fixedValue;
        value           uniform 1.13;
    }
    inletWallsRight
    {
        type            kqRWallFunction;
        value           nonuniform List<scalar> 
40
(
48.8534
72.0472
76.6618
77.0957
94.5802
108.679
133.186
165.117
216.676
301.248
406.906
555.517
868.466
1286.03
918.004
89.9881
0.977324
2.72863
1.02176
0.950545
1.27981
3.7522
3.59445
2.14392
2.40087
2.45649
3.39449
3.83139
4.90047
6.4398
6.80314
9.28222
9.49837
12.1566
13.9733
44.9967
87.1881
86.3486
85.6801
59.8111
)
;
    }
    inletFacesRight
    {
        type            zeroGradient;
    }
}


// ************************************************************************* //
