/*--------------------------------*- C++ -*----------------------------------*\
| =========                 |                                                 |
| \\      /  F ield         | OpenFOAM: The Open Source CFD Toolbox           |
|  \\    /   O peration     | Version:  4.1                                   |
|   \\  /    A nd           | Web:      www.OpenFOAM.org                      |
|    \\/     M anipulation  |                                                 |
\*---------------------------------------------------------------------------*/
FoamFile
{
    version     2.0;
    format      ascii;
    class       volScalarField;
    location    "1";
    object      nut;
}
// * * * * * * * * * * * * * * * * * * * * * * * * * * * * * * * * * * * * * //

dimensions      [0 2 -1 0 0 0 0];

internalField   nonuniform List<scalar> 
1280
(
3.94906
6.78379
3.79605
3.80727
6.72954
3.7602
3.70502
3.71217
6.37926
3.52688
3.51705
6.03044
3.4065
3.46837
4.37893
6.16139
8.0651
11.2206
28.4943
98.446
212.235
24.8694
15.0266
5.69188
2.44338
1.26418
0.00351478
9.85077e-07
5.86932e-11
7.51567e-14
4.54585e-21
1.70111e-18
4.05181
2.54537
5.07141
12.029
25.4529
216.889
94.022
47.5542
221.533
80.2362
60.7394
57.0221
66.3877
23.2109
15.3557
14.1098
10.5754
4.52788
3.78356
4.49489
2.76464
2.32263
4.90709
15.2796
11.6348
10.3172
32.1806
96.9339
9.08816
10.8906
12.8408
7.77001
3.89535
1.20973
0.519423
0.00267422
0.000428855
0.000962237
1.99057e-08
2.08183e-05
0.000133021
0.00625565
0.042836
8.13575
1.55141
534.212
8.49032
3.8494
79.8662
66.8496
79.4522
20.8919
19.4286
22.2669
6.08831
7.26998
9.83274
3.94342
3.89005
6.37509
3.6907
3.67607
3.63001
6.31137
3.71244
3.71744
6.62562
3.7202
3.85786e-11
3.29861e-11
2.79251e-11
2.32463e-11
1.46058e-11
9.87294e-12
6.73343e-12
2.98424e-12
1.39805e-12
4.65158e-13
1.29298e-13
2.64038e-14
3.36801e-15
4.47045e-16
5.70737e-18
2.12541e-18
8.24821e-18
3.6049e-15
4.17517e-10
3.94822e-11
3.32447e-11
2.6337e-11
2.24416e-11
1.41398e-11
9.79075e-12
6.16157e-12
2.43458e-12
9.86111e-13
2.52014e-13
5.83503e-14
8.5086e-15
3.13322e-16
1.26646e-17
7.06992e-19
1.42588e-17
2.75191e-16
7.77751e-12
7.7156e-08
3.10225e-11
2.8264e-11
2.19514e-11
1.91828e-11
1.51321e-11
6.98632e-12
3.90317e-12
2.41095e-12
8.82126e-13
1.37102e-13
2.03364e-14
3.90575e-16
6.10085e-17
1.78413e-18
3.88783e-18
3.77264e-16
1.99859e-10
9.3997e-06
1.08897e-05
3.19828e-11
2.65351e-11
2.03833e-11
1.42579e-11
1.26459e-11
6.74381e-12
2.89278e-12
6.77462e-13
2.37829e-13
6.86966e-14
8.88239e-15
3.87151e-16
4.11727e-18
2.77032e-18
4.51544e-17
7.15471e-11
0.000553301
0.181262
0.0392018
3.22049e-11
2.68282e-11
1.91057e-11
1.13512e-11
7.1827e-12
2.88187e-12
9.42185e-13
3.72421e-13
9.99269e-14
3.32923e-14
3.2481e-15
1.57582e-16
1.11628e-18
3.60851e-18
1.63688e-13
1.88748e-05
7.14266
88.356
106.356
2.99309e-11
2.60343e-11
1.9248e-11
1.21274e-11
5.6741e-12
1.71452e-12
5.05386e-13
1.32907e-13
4.61456e-15
2.1588e-15
1.32951e-15
5.58124e-17
5.63343e-19
1.10848e-18
5.79214e-16
3.48124e-07
0.788396
17.5048
68.4544
2.52343e-11
2.14021e-11
1.50243e-11
9.34611e-12
4.33605e-12
2.01911e-12
2.51379e-13
3.3451e-14
1.17322e-17
4.95975e-15
1.47885e-16
8.28258e-19
5.502e-20
6.05114e-17
4.28776e-05
0.00939807
28.035
308.21
583.596
2.06853e-11
1.90956e-11
1.2861e-11
8.09748e-12
4.34291e-12
8.43121e-13
1.65445e-13
1.09677e-15
4.86894e-18
3.33118e-16
1.40606e-18
3.93238e-20
2.2926e-19
3.11312e-16
2.17491e-05
0.274162
54.071
203.962
2334.37
1.97184e-11
1.82289e-11
1.16219e-11
6.92696e-12
3.869e-12
1.58398e-12
7.03285e-13
1.65163e-13
3.38055e-16
8.56602e-16
2.137e-17
3.06122e-18
1.51605e-17
2.51404e-15
1.71172e-07
0.000359012
0.738873
33.5907
10.0416
1.48274e-11
1.37365e-11
1.05131e-11
6.43285e-12
4.15871e-12
1.7772e-12
1.02655e-12
6.56327e-13
6.90743e-14
1.17766e-14
8.43687e-16
9.91408e-17
4.90515e-18
3.36362e-18
1.18122e-15
3.75004e-07
0.000218725
0.012453
2.57919e-05
2.4402e-11
2.00545e-11
1.4006e-11
8.17189e-12
4.10255e-12
3.12124e-12
1.25251e-12
7.86539e-13
5.89823e-14
8.36866e-15
2.20701e-16
1.48557e-18
5.47001e-20
2.31235e-19
8.12419e-18
4.62939e-15
2.79918e-05
0.0234395
0.0498495
2.56065e-11
2.05641e-11
1.60461e-11
1.17893e-11
6.1367e-12
2.45367e-12
6.98333e-13
1.94917e-13
6.24726e-15
1.10093e-15
1.21785e-17
9.5526e-20
8.90428e-20
3.8288e-18
1.198e-15
1.13296e-10
0.0055164
259.513
26.1514
2.47911e-11
2.01502e-11
1.39482e-11
9.36369e-12
4.98809e-12
2.26439e-12
7.72414e-13
5.73709e-14
2.245e-15
2.61133e-16
1.01656e-18
6.98169e-20
2.52568e-19
5.05671e-17
3.10373e-12
0.000592758
6.86671
37.4633
56.281
2.66893e-11
1.94381e-11
1.67051e-11
1.09998e-11
8.64632e-12
4.17972e-12
2.06949e-12
3.22424e-13
4.69382e-15
9.71156e-16
1.23159e-17
1.51349e-19
3.94067e-19
2.58251e-17
1.43268e-12
0.00147477
2.58535
9.69535
2.19062
3.05759e-11
2.06525e-11
1.80676e-11
1.26323e-11
8.85615e-12
4.37839e-12
1.10172e-12
4.21777e-13
3.07696e-14
4.08081e-15
2.12375e-16
3.88947e-18
2.39003e-17
3.25261e-15
1.13654e-13
7.81288e-05
2.87918
112.678
0.127248
2.91385e-11
2.11082e-11
1.75302e-11
1.34331e-11
7.85076e-12
3.95074e-12
1.67179e-12
5.25962e-13
9.30962e-14
9.67211e-15
2.20975e-15
3.93301e-16
2.87133e-16
1.03918e-15
8.56752e-14
1.73775e-11
4.73821e-09
0.00332763
0.000615459
3.34443e-11
2.242e-11
2.06038e-11
1.54896e-11
1.0959e-11
8.04446e-12
3.38229e-12
2.11235e-12
1.91233e-13
2.12952e-13
1.63494e-14
2.71477e-15
7.85461e-16
1.63418e-16
1.57641e-15
1.25273e-14
3.43132e-14
4.13834e-16
5.86184e-06
3.23531e-11
2.54014e-11
1.74262e-11
1.61499e-11
1.26621e-11
7.61699e-12
3.92212e-12
1.41677e-12
4.27878e-13
2.26962e-13
1.89558e-13
1.3439e-14
2.60082e-15
1.07373e-15
1.18691e-14
2.14984e-14
4.64563e-16
1.01101e-17
0.000216534
3.61042e-11
2.69403e-11
2.04264e-11
2.0138e-11
1.68396e-11
9.46241e-12
6.27735e-12
4.66686e-12
2.25338e-12
6.85064e-13
1.54973e-13
2.42224e-14
1.34415e-14
6.84206e-15
8.30645e-15
3.98193e-17
1.2719e-17
1.51913e-17
0.000475724
3.56259e-11
3.00714e-11
2.20025e-11
1.85255e-11
1.55886e-11
1.1953e-11
6.72139e-12
3.71725e-12
2.31456e-12
1.26181e-12
8.74725e-13
1.93955e-13
1.29817e-13
9.17591e-14
2.61524e-13
5.74312e-14
5.14292e-18
9.96039e-16
0.000276666
2.47391
6.40648
13.0127
0.320224
0.0358696
0.0113533
1.79461e-05
8.84689e-09
1.94583e-18
5.01018e-19
1.04879e-16
7.76597e-16
3.89067e-12
0.385861
0.00966781
0.0319428
15.6704
0.270775
4.64229
1.54616
2.72099
2.77771
0.169812
0.0110246
0.000210971
1.77249e-06
5.47801e-09
4.31951e-12
2.68907e-13
3.88201e-15
4.23026e-17
2.04364e-17
1.28985e-15
6.28247e-17
0.000307845
0.000146247
47.3269
1.05106
8.11087
1.90386
2.78688
3.02063
0.349538
0.050833
0.00294059
0.000381028
3.93482e-05
3.00957e-06
3.80398e-07
8.7749e-08
5.08938e-12
2.67802e-13
3.46684e-14
2.54847e-16
2.57639e-23
1.04905e-11
0.114026
0.576202
4.133
1.64529
2.99321
1.9552
0.246583
0.0189808
0.000823875
7.93063e-07
6.53771e-12
6.47842e-10
1.70404e-17
1.03209e-15
1.33804e-13
2.278e-12
1.96085e-14
4.51233e-21
1.94431e-20
5.49453e-21
2.18994e-13
2.49183
5.8537
1.61197
3.2062
2.38874
0.266577
0.0318273
0.00217999
0.00229927
6.59346e-10
4.20487e-15
1.354e-13
1.53477e-11
3.63425e-12
3.36669e-12
1.9227e-13
5.09016e-15
1.40972e-16
3.93855e-16
0.000666897
5.84784
15.5539
1.29375
3.50107
1.99556
0.25476
0.00793412
9.31021e-05
5.62735e-07
1.14112e-09
1.59547e-10
5.73626e-11
3.59192e-12
3.37356e-13
3.47783e-12
2.5879e-12
5.62663e-13
4.47022e-13
1.12881e-18
7.45438e-06
4.30901
15.5743
1.27062
3.82793
1.74747
0.405135
0.00929617
0.00019766
2.9691e-07
9.87222e-09
3.21025e-09
2.45013e-10
2.84562e-11
1.47885e-12
4.62246e-12
3.18186e-12
2.98841e-13
9.98822e-13
2.11334e-13
3.88739e-08
0.0298241
0.884727
1.0881
4.31973
1.76048
0.445496
0.00652783
0.000220458
2.35494e-06
1.26997e-07
1.00139e-08
4.8668e-10
3.15345e-11
1.73618e-12
9.31531e-12
7.06517e-12
1.6112e-12
1.30474e-12
5.63532e-10
3.35516e-08
0.00106633
0.0980232
1.01382
4.93118
2.6219
0.432873
0.00280495
7.30851e-07
5.36553e-10
4.02805e-15
9.46896e-12
9.39911e-18
2.23587e-12
1.03827e-12
3.07979e-11
1.38889e-11
2.0867e-12
1.70568e-11
1.3641e-10
2.44234e-08
0.00109412
0.114136
0.904229
5.5964
4.5883
0.550385
0.00791334
1.50747e-05
2.11504e-11
6.83546e-16
1.59057e-17
1.45352e-14
4.25786e-12
1.51728e-12
3.20346e-10
7.26742e-11
4.24404e-12
4.811e-12
2.76364e-10
85.7008
0.00183161
0.177981
0.855079
6.37019
7.86772
0.664019
0.00276288
3.54408e-05
1.28241e-12
5.92766e-16
7.83534e-17
3.8275e-14
1.39623e-11
2.54765e-12
1.01976e-10
6.69742e-11
4.92221e-12
1.31507e-11
2.70799e-10
63.0112
0.0017886
0.347809
0.779617
7.33215
15.4754
6.27381
0.0592474
0.000937968
3.60541e-14
3.19452e-17
1.70939e-17
8.53464e-11
1.47887e-10
4.81291e-12
1.52716e-10
7.38864e-11
3.87631e-12
8.1398e-12
9.71665e-10
51.3037
0.00210033
0.442859
0.696285
8.5763
32.9874
40.3048
6.56657
0.26506
2.53471e-11
4.23287e-13
1.01045e-13
4.75413e-10
2.145e-10
7.00331e-12
8.55844e-11
4.82238e-11
7.08686e-12
9.75685e-12
5.54561e-09
0.127836
3.6329e-05
0.0665368
0.619794
10.0273
69.2638
87.8434
48.3028
2.01985
3.25542e-07
3.57374e-08
3.14365e-12
3.54888e-10
1.52e-10
2.52293e-11
1.28039e-10
7.18442e-11
1.78801e-11
1.25516e-11
3.89929e-08
0.00202969
5.83094e-05
0.0130797
0.588399
10.4304
80.3229
110.341
84.6583
43.3299
0.00465406
2.00135e-06
9.79043e-11
2.21314e-09
3.00479e-10
5.71696e-11
1.10072e-10
6.80458e-11
2.68147e-11
1.28164e-11
4.17844e-12
0.00113222
8.69606e-05
0.0144102
0.494569
4.98303
31.4973
69.4083
71.613
34.7798
0.777524
0.000646502
7.61736e-06
1.64979e-08
9.2056e-10
2.24101e-10
1.34637e-10
7.79029e-11
4.31926e-11
2.0585e-11
8.47379e-12
9.34376e-13
0.000144977
0.0222717
0.466342
1.82352
0.241083
4.32379
5.22421
1.15739
0.00240606
3.21614e-06
5.20252e-08
8.68188e-10
4.76004e-10
3.81835e-10
2.96421e-10
2.13492e-10
1.42811e-10
8.79848e-11
4.87512e-11
1.53619e-10
0.000280731
0.0551226
0.434007
1.42328
0.323522
0.0321032
0.0472529
0.000566139
8.85043e-08
3.13568e-08
2.98191e-09
2.84504e-09
2.53349e-09
2.22675e-09
1.93188e-09
1.6435e-09
1.38404e-09
1.14459e-09
9.6299e-10
6.74325e-09
0.000382145
0.101615
0.550188
0.370316
1.72216e-05
7.53602e-08
1.01713e-07
1.13784e-08
3.44808e-08
3.34374e-08
3.23513e-08
3.11743e-08
3.02286e-08
2.92e-08
2.81136e-08
2.70065e-08
2.57804e-08
2.43737e-08
2.33057e-08
1.74941e-07
0.000395413
0.0248152
0.571288
0.307992
8.85352e-07
8.7687e-07
8.77603e-07
8.76878e-07
8.74214e-07
8.75671e-07
8.74973e-07
8.72538e-07
8.73818e-07
8.73407e-07
8.72222e-07
8.72462e-07
8.72429e-07
8.7164e-07
8.71127e-07
8.7261e-07
8.93054e-07
6.45616e-06
0.358589
0.30803
8.91142e-07
8.78226e-07
8.76801e-07
8.75474e-07
8.75368e-07
8.74438e-07
8.74972e-07
8.74621e-07
8.72556e-07
8.73894e-07
8.73383e-07
8.71034e-07
8.71871e-07
8.71455e-07
8.70887e-07
8.72263e-07
8.77061e-07
6.42523e-06
0.35742
0.319361
3.94543e-07
3.85367e-08
3.40142e-08
3.52126e-08
3.35939e-08
3.2985e-08
3.21356e-08
3.08683e-08
2.96876e-08
2.90138e-08
2.78355e-08
2.66491e-08
2.55176e-08
2.41288e-08
2.38939e-08
6.8395e-07
0.0013201
0.0385168
0.611997
0.521889
0.00944689
0.000845571
3.03837e-06
1.65347e-07
0.000648421
2.09529e-09
3.02523e-09
7.8165e-10
2.41196e-09
2.24957e-09
1.97669e-09
1.68812e-09
1.41162e-09
1.17231e-09
9.63361e-10
1.91996e-09
0.000284514
0.122452
0.598994
0.312338
0.209899
0.586459
0.216957
0.0224159
0.0792547
0.0261149
0.00626643
8.14197e-05
3.11108e-07
2.40175e-09
4.35974e-10
2.83731e-10
1.8858e-10
1.20901e-10
6.79042e-11
4.20406e-11
0.000165894
0.0663284
0.462605
2.99708
26.6741
10.419
8.76148
0.106726
0.000210054
0.00151364
0.00617623
0.000158247
1.15427e-06
2.85623e-08
1.06287e-09
2.14835e-10
1.02675e-10
5.50629e-11
5.71475e-12
3.53159e-05
0.000101913
0.0264077
0.489542
9.57257
55.9504
69.8466
52.2937
21.1065
0.0883968
0.00107175
6.349e-08
3.12412e-08
5.79819e-07
4.20848e-08
2.17146e-09
1.89708e-10
1.22519e-10
6.5766e-11
1.80762e-13
1.91848e-05
5.49786e-05
0.0116561
0.495181
11.33
74.4832
80.3473
53.7823
7.35993
0.016196
0.000213979
1.23949e-09
1.00722e-14
5.89635e-11
2.68731e-08
3.035e-09
2.17819e-10
1.49401e-10
7.58008e-11
8.51451e-14
7.29511e-06
6.40715e-05
0.0152911
0.582095
9.31071
42.0021
52.9071
10.0366
0.0710611
1.43614e-06
1.8492e-12
1.17752e-14
1.24654e-16
2.96469e-17
2.45283e-10
1.87908e-09
2.27525e-10
1.07504e-10
4.79195e-11
7.27662e-13
2.34379e-07
0.0610653
0.00856246
0.618421
7.44654
20.8631
29.2348
2.1753
0.0244019
1.16623e-09
1.81416e-17
1.53279e-16
1.61689e-17
9.72061e-18
1.68344e-15
2.95217e-10
1.53722e-10
3.04851e-11
2.4088e-11
3.3194e-14
1.71043e-06
0.0327922
0.154252
0.699399
6.37314
10.1665
16.7011
0.205784
0.000226608
1.45311e-10
4.92581e-18
1.11041e-17
3.42792e-18
1.43836e-17
1.16937e-17
5.52829e-15
1.2996e-12
6.35656e-11
7.74747e-12
3.9196e-06
1.04379e-06
0.0220144
0.142638
0.801757
5.48363
7.33431
1.98787
0.00785159
3.7635e-05
3.95085e-11
1.12948e-16
6.77717e-17
1.0517e-18
7.86013e-19
1.76154e-18
5.42752e-17
2.76127e-14
9.1265e-12
3.36068e-11
8.36804e-14
1.21775e-07
0.00617876
0.102624
0.824064
4.65063
5.47252
0.0990536
3.47787e-05
1.03169e-07
2.21217e-15
2.8999e-17
6.16378e-18
3.31967e-18
1.01672e-18
1.70843e-18
2.0524e-17
2.23445e-15
3.26599e-12
8.47906e-12
0.103048
4.00973e-05
0.00698527
0.0621153
0.96257
4.05978
3.10323
0.0137355
6.01197e-06
1.80054e-07
8.85715e-14
1.11938e-17
5.36519e-18
6.5209e-19
6.14594e-19
2.26542e-18
3.64384e-17
5.92427e-16
1.86868e-12
1.57642e-11
1.46799e-07
1.51312e-06
0.00406894
0.0718681
0.973713
3.64615
2.65841
0.0194964
7.36153e-06
3.6151e-07
1.03381e-11
9.74994e-17
1.03898e-17
4.76641e-19
3.78432e-19
1.65964e-18
2.10348e-17
1.96465e-16
7.69686e-13
7.0475e-12
1.2146e-16
0.000158747
0.127512
1.74016
1.10157
3.29366
2.59504
0.0540238
7.18328e-05
3.3813e-06
2.55708e-11
3.74796e-17
2.904e-18
3.95042e-19
5.03843e-19
2.96935e-18
3.51058e-17
4.13173e-16
6.61407e-13
2.05433e-12
5.11015e-05
0.000238618
1.81197
11.8489
1.18102
3.0726
2.78064
0.0749364
6.15277e-05
2.86429e-06
4.7496e-11
1.87809e-15
7.95019e-18
4.3632e-19
9.61825e-19
7.9701e-18
7.6609e-17
1.8288e-16
8.86233e-13
4.86044e-20
7.653e-24
0.0187686
12.838
22.4144
2.11932
2.77409
2.79449
0.142063
7.32701e-05
3.97261e-06
1.64345e-12
6.92546e-17
3.62277e-18
4.14868e-19
4.29752e-19
6.19571e-18
1.21832e-16
2.98857e-14
1.13907e-14
1.56195e-17
4.55121e-16
1.1993e-05
12.2291
16.9706
2.95009
2.76628
1.67315
0.11281
1.78128e-05
2.39101e-05
7.436e-14
4.96788e-17
1.70865e-18
3.4937e-19
6.6382e-19
1.87867e-17
1.62031e-16
2.34049e-15
2.31723e-16
7.41617e-14
4.09e-08
4.57107e-06
1.39689
11.4914
2.93585
2.68173
3.14059
0.0100026
1.15936e-07
2.65e-10
6.99286e-16
5.69377e-18
3.87448e-19
3.49823e-19
8.25983e-19
3.18206e-17
3.01579e-18
9.76602e-11
2.56813e-05
1.42446e-13
1.38069e-10
8.02598e-07
0.301779
7.19009
2.92446
2.20828
0.3841
0.519544
0.0236251
0.189563
0.00529974
3.22937e-07
3.89455e-21
0.00105294
7.39027e-18
1.14896e-19
9.19065e-19
4.8893e-09
1.72788e-05
0.00331057
0.00492887
0.00484839
0.421053
3.94776
2.44341
)
;

boundaryField
{
    outletWall
    {
        type            calculated;
        value           nonuniform List<scalar> 
60
(
3.7202
4.17517e-10
3.6049e-15
8.24821e-18
2.12541e-18
5.70737e-18
4.47045e-16
3.36801e-15
2.64038e-14
1.29298e-13
4.65158e-13
1.39805e-12
2.98424e-12
6.73343e-12
9.87294e-12
1.46058e-11
2.32463e-11
2.79251e-11
3.29861e-11
3.85786e-11
3.56259e-11
3.61042e-11
3.23531e-11
3.34443e-11
2.91385e-11
3.05759e-11
2.66893e-11
2.47911e-11
2.56065e-11
2.4402e-11
1.48274e-11
1.97184e-11
2.06853e-11
2.52343e-11
2.99309e-11
3.22049e-11
3.19828e-11
3.10225e-11
3.94822e-11
3.85786e-11
3.94906
0.000276666
9.96039e-16
5.14292e-18
5.74312e-14
2.61524e-13
9.17591e-14
1.29817e-13
1.93955e-13
8.74725e-13
1.26181e-12
2.31456e-12
3.71725e-12
6.72139e-12
1.1953e-11
1.55886e-11
1.85255e-11
2.20025e-11
3.00714e-11
3.56259e-11
)
;
    }
    fineWalls
    {
        type            nutkWallFunction;
        Cmu             0.09;
        kappa           0.41;
        E               9.8;
        value           nonuniform List<scalar> 
60
(
5.29754
1.64292
0.683686
0.5015
0.389644
0.283029
0.227601
0.223805
0.381881
0.230585
0.231187
0.402538
0.24252
0.242084
0.245452
0.423215
0.248323
0.247639
0.426411
0.256959
5.22052
1.84254
0.63187
0.707361
0.913816
0.314851
0.156529
0.184158
0.290035
0.246877
0.292026
0.646701
0.847891
0.918096
1.3543
3.64981
3.16134
3.35568
4.36569
11.4225
0.243011
0.417087
0.242842
0.242537
0.398523
0.237499
0.240315
0.241209
0.402291
0.253367
0.256616
0.603976
0.454993
0.385313
1.30238
1.1455
1.22652
4.32534
3.6738
4.34665
)
;
    }
    fineFrontAndBack
    {
        type            calculated;
        value           nonuniform List<scalar> 
960
(
3.94906
6.78379
3.79605
3.80727
6.72954
3.7602
3.70502
3.71217
6.37926
3.52688
3.51705
6.03044
3.4065
3.46837
4.37893
6.16139
8.0651
11.2206
28.4943
98.446
212.235
24.8694
15.0266
5.69188
2.44338
1.26418
0.00351478
9.85077e-07
5.86932e-11
7.51567e-14
4.54585e-21
1.70111e-18
4.05181
2.54537
5.07141
12.029
25.4529
216.889
94.022
47.5542
221.533
80.2362
60.7394
57.0221
66.3877
23.2109
15.3557
14.1098
10.5754
4.52788
3.78356
4.49489
2.76464
2.32263
4.90709
15.2796
11.6348
10.3172
32.1806
96.9339
9.08816
10.8906
12.8408
7.77001
3.89535
1.20973
0.519423
0.00267422
0.000428855
0.000962237
1.99057e-08
2.08183e-05
0.000133021
0.00625565
0.042836
8.13575
1.55141
534.212
8.49032
3.8494
79.8662
66.8496
79.4522
20.8919
19.4286
22.2669
6.08831
7.26998
9.83274
3.94342
3.89005
6.37509
3.6907
3.67607
3.63001
6.31137
3.71244
3.71744
6.62562
3.7202
3.85786e-11
3.29861e-11
2.79251e-11
2.32463e-11
1.46058e-11
9.87294e-12
6.73343e-12
2.98424e-12
1.39805e-12
4.65158e-13
1.29298e-13
2.64038e-14
3.36801e-15
4.47045e-16
5.70737e-18
2.12541e-18
8.24821e-18
3.6049e-15
4.17517e-10
3.94822e-11
3.32447e-11
2.6337e-11
2.24416e-11
1.41398e-11
9.79075e-12
6.16157e-12
2.43458e-12
9.86111e-13
2.52014e-13
5.83503e-14
8.5086e-15
3.13322e-16
1.26646e-17
7.06992e-19
1.42588e-17
2.75191e-16
7.77751e-12
7.7156e-08
3.10225e-11
2.8264e-11
2.19514e-11
1.91828e-11
1.51321e-11
6.98632e-12
3.90317e-12
2.41095e-12
8.82126e-13
1.37102e-13
2.03364e-14
3.90575e-16
6.10085e-17
1.78413e-18
3.88783e-18
3.77264e-16
1.99859e-10
9.3997e-06
1.08897e-05
3.19828e-11
2.65351e-11
2.03833e-11
1.42579e-11
1.26459e-11
6.74381e-12
2.89278e-12
6.77462e-13
2.37829e-13
6.86966e-14
8.88239e-15
3.87151e-16
4.11727e-18
2.77032e-18
4.51544e-17
7.15471e-11
0.000553301
0.181262
0.0392018
3.22049e-11
2.68282e-11
1.91057e-11
1.13512e-11
7.1827e-12
2.88187e-12
9.42185e-13
3.72421e-13
9.99269e-14
3.32923e-14
3.2481e-15
1.57582e-16
1.11628e-18
3.60851e-18
1.63688e-13
1.88748e-05
7.14266
88.356
106.356
2.99309e-11
2.60343e-11
1.9248e-11
1.21274e-11
5.6741e-12
1.71452e-12
5.05386e-13
1.32907e-13
4.61456e-15
2.1588e-15
1.32951e-15
5.58124e-17
5.63343e-19
1.10848e-18
5.79214e-16
3.48124e-07
0.788396
17.5048
68.4544
2.52343e-11
2.14021e-11
1.50243e-11
9.34611e-12
4.33605e-12
2.01911e-12
2.51379e-13
3.3451e-14
1.17322e-17
4.95975e-15
1.47885e-16
8.28258e-19
5.502e-20
6.05114e-17
4.28776e-05
0.00939807
28.035
308.21
583.596
2.06853e-11
1.90956e-11
1.2861e-11
8.09748e-12
4.34291e-12
8.43121e-13
1.65445e-13
1.09677e-15
4.86894e-18
3.33118e-16
1.40606e-18
3.93238e-20
2.2926e-19
3.11312e-16
2.17491e-05
0.274162
54.071
203.962
2334.37
1.97184e-11
1.82289e-11
1.16219e-11
6.92696e-12
3.869e-12
1.58398e-12
7.03285e-13
1.65163e-13
3.38055e-16
8.56602e-16
2.137e-17
3.06122e-18
1.51605e-17
2.51404e-15
1.71172e-07
0.000359012
0.738873
33.5907
10.0416
1.48274e-11
1.37365e-11
1.05131e-11
6.43285e-12
4.15871e-12
1.7772e-12
1.02655e-12
6.56327e-13
6.90743e-14
1.17766e-14
8.43687e-16
9.91408e-17
4.90515e-18
3.36362e-18
1.18122e-15
3.75004e-07
0.000218725
0.012453
2.57919e-05
2.4402e-11
2.00545e-11
1.4006e-11
8.17189e-12
4.10255e-12
3.12124e-12
1.25251e-12
7.86539e-13
5.89823e-14
8.36866e-15
2.20701e-16
1.48557e-18
5.47001e-20
2.31235e-19
8.12419e-18
4.62939e-15
2.79918e-05
0.0234395
0.0498495
2.56065e-11
2.05641e-11
1.60461e-11
1.17893e-11
6.1367e-12
2.45367e-12
6.98333e-13
1.94917e-13
6.24726e-15
1.10093e-15
1.21785e-17
9.5526e-20
8.90428e-20
3.8288e-18
1.198e-15
1.13296e-10
0.0055164
259.513
26.1514
2.47911e-11
2.01502e-11
1.39482e-11
9.36369e-12
4.98809e-12
2.26439e-12
7.72414e-13
5.73709e-14
2.245e-15
2.61133e-16
1.01656e-18
6.98169e-20
2.52568e-19
5.05671e-17
3.10373e-12
0.000592758
6.86671
37.4633
56.281
2.66893e-11
1.94381e-11
1.67051e-11
1.09998e-11
8.64632e-12
4.17972e-12
2.06949e-12
3.22424e-13
4.69382e-15
9.71156e-16
1.23159e-17
1.51349e-19
3.94067e-19
2.58251e-17
1.43268e-12
0.00147477
2.58535
9.69535
2.19062
3.05759e-11
2.06525e-11
1.80676e-11
1.26323e-11
8.85615e-12
4.37839e-12
1.10172e-12
4.21777e-13
3.07696e-14
4.08081e-15
2.12375e-16
3.88947e-18
2.39003e-17
3.25261e-15
1.13654e-13
7.81288e-05
2.87918
112.678
0.127248
2.91385e-11
2.11082e-11
1.75302e-11
1.34331e-11
7.85076e-12
3.95074e-12
1.67179e-12
5.25962e-13
9.30962e-14
9.67211e-15
2.20975e-15
3.93301e-16
2.87133e-16
1.03918e-15
8.56752e-14
1.73775e-11
4.73821e-09
0.00332763
0.000615459
3.34443e-11
2.242e-11
2.06038e-11
1.54896e-11
1.0959e-11
8.04446e-12
3.38229e-12
2.11235e-12
1.91233e-13
2.12952e-13
1.63494e-14
2.71477e-15
7.85461e-16
1.63418e-16
1.57641e-15
1.25273e-14
3.43132e-14
4.13834e-16
5.86184e-06
3.23531e-11
2.54014e-11
1.74262e-11
1.61499e-11
1.26621e-11
7.61699e-12
3.92212e-12
1.41677e-12
4.27878e-13
2.26962e-13
1.89558e-13
1.3439e-14
2.60082e-15
1.07373e-15
1.18691e-14
2.14984e-14
4.64563e-16
1.01101e-17
0.000216534
3.61042e-11
2.69403e-11
2.04264e-11
2.0138e-11
1.68396e-11
9.46241e-12
6.27735e-12
4.66686e-12
2.25338e-12
6.85064e-13
1.54973e-13
2.42224e-14
1.34415e-14
6.84206e-15
8.30645e-15
3.98193e-17
1.2719e-17
1.51913e-17
0.000475724
3.56259e-11
3.00714e-11
2.20025e-11
1.85255e-11
1.55886e-11
1.1953e-11
6.72139e-12
3.71725e-12
2.31456e-12
1.26181e-12
8.74725e-13
1.93955e-13
1.29817e-13
9.17591e-14
2.61524e-13
5.74312e-14
5.14292e-18
9.96039e-16
0.000276666
3.94906
6.78379
3.79605
3.80727
6.72954
3.7602
3.70502
3.71217
6.37926
3.52688
3.51705
6.03044
3.4065
3.46837
4.37893
6.16139
8.0651
11.2206
28.4943
98.446
212.235
24.8694
15.0266
5.69188
2.44338
1.26418
0.00351478
9.85077e-07
5.86932e-11
7.51567e-14
4.54585e-21
1.70111e-18
4.05181
2.54537
5.07141
12.029
25.4529
216.889
94.022
47.5542
221.533
80.2362
60.7394
57.0221
66.3877
23.2109
15.3557
14.1098
10.5754
4.52788
3.78356
4.49489
2.76464
2.32263
4.90709
15.2796
11.6348
10.3172
32.1806
96.9339
9.08816
10.8906
12.8408
7.77001
3.89535
1.20973
0.519423
0.00267422
0.000428855
0.000962237
1.99057e-08
2.08183e-05
0.000133021
0.00625565
0.042836
8.13575
1.55141
534.212
8.49032
3.8494
79.8662
66.8496
79.4522
20.8919
19.4286
22.2669
6.08831
7.26998
9.83274
3.94342
3.89005
6.37509
3.6907
3.67607
3.63001
6.31137
3.71244
3.71744
6.62562
3.7202
3.85786e-11
3.29861e-11
2.79251e-11
2.32463e-11
1.46058e-11
9.87294e-12
6.73343e-12
2.98424e-12
1.39805e-12
4.65158e-13
1.29298e-13
2.64038e-14
3.36801e-15
4.47045e-16
5.70737e-18
2.12541e-18
8.24821e-18
3.6049e-15
4.17517e-10
3.94822e-11
3.32447e-11
2.6337e-11
2.24416e-11
1.41398e-11
9.79075e-12
6.16157e-12
2.43458e-12
9.86111e-13
2.52014e-13
5.83503e-14
8.5086e-15
3.13322e-16
1.26646e-17
7.06992e-19
1.42588e-17
2.75191e-16
7.77751e-12
7.7156e-08
3.10225e-11
2.8264e-11
2.19514e-11
1.91828e-11
1.51321e-11
6.98632e-12
3.90317e-12
2.41095e-12
8.82126e-13
1.37102e-13
2.03364e-14
3.90575e-16
6.10085e-17
1.78413e-18
3.88783e-18
3.77264e-16
1.99859e-10
9.3997e-06
1.08897e-05
3.19828e-11
2.65351e-11
2.03833e-11
1.42579e-11
1.26459e-11
6.74381e-12
2.89278e-12
6.77462e-13
2.37829e-13
6.86966e-14
8.88239e-15
3.87151e-16
4.11727e-18
2.77032e-18
4.51544e-17
7.15471e-11
0.000553301
0.181262
0.0392018
3.22049e-11
2.68282e-11
1.91057e-11
1.13512e-11
7.1827e-12
2.88187e-12
9.42185e-13
3.72421e-13
9.99269e-14
3.32923e-14
3.2481e-15
1.57582e-16
1.11628e-18
3.60851e-18
1.63688e-13
1.88748e-05
7.14266
88.356
106.356
2.99309e-11
2.60343e-11
1.9248e-11
1.21274e-11
5.6741e-12
1.71452e-12
5.05386e-13
1.32907e-13
4.61456e-15
2.1588e-15
1.32951e-15
5.58124e-17
5.63343e-19
1.10848e-18
5.79214e-16
3.48124e-07
0.788396
17.5048
68.4544
2.52343e-11
2.14021e-11
1.50243e-11
9.34611e-12
4.33605e-12
2.01911e-12
2.51379e-13
3.3451e-14
1.17322e-17
4.95975e-15
1.47885e-16
8.28258e-19
5.502e-20
6.05114e-17
4.28776e-05
0.00939807
28.035
308.21
583.596
2.06853e-11
1.90956e-11
1.2861e-11
8.09748e-12
4.34291e-12
8.43121e-13
1.65445e-13
1.09677e-15
4.86894e-18
3.33118e-16
1.40606e-18
3.93238e-20
2.2926e-19
3.11312e-16
2.17491e-05
0.274162
54.071
203.962
2334.37
1.97184e-11
1.82289e-11
1.16219e-11
6.92696e-12
3.869e-12
1.58398e-12
7.03285e-13
1.65163e-13
3.38055e-16
8.56602e-16
2.137e-17
3.06122e-18
1.51605e-17
2.51404e-15
1.71172e-07
0.000359012
0.738873
33.5907
10.0416
1.48274e-11
1.37365e-11
1.05131e-11
6.43285e-12
4.15871e-12
1.7772e-12
1.02655e-12
6.56327e-13
6.90743e-14
1.17766e-14
8.43687e-16
9.91408e-17
4.90515e-18
3.36362e-18
1.18122e-15
3.75004e-07
0.000218725
0.012453
2.57919e-05
2.4402e-11
2.00545e-11
1.4006e-11
8.17189e-12
4.10255e-12
3.12124e-12
1.25251e-12
7.86539e-13
5.89823e-14
8.36866e-15
2.20701e-16
1.48557e-18
5.47001e-20
2.31235e-19
8.12419e-18
4.62939e-15
2.79918e-05
0.0234395
0.0498495
2.56065e-11
2.05641e-11
1.60461e-11
1.17893e-11
6.1367e-12
2.45367e-12
6.98333e-13
1.94917e-13
6.24726e-15
1.10093e-15
1.21785e-17
9.5526e-20
8.90428e-20
3.8288e-18
1.198e-15
1.13296e-10
0.0055164
259.513
26.1514
2.47911e-11
2.01502e-11
1.39482e-11
9.36369e-12
4.98809e-12
2.26439e-12
7.72414e-13
5.73709e-14
2.245e-15
2.61133e-16
1.01656e-18
6.98169e-20
2.52568e-19
5.05671e-17
3.10373e-12
0.000592758
6.86671
37.4633
56.281
2.66893e-11
1.94381e-11
1.67051e-11
1.09998e-11
8.64632e-12
4.17972e-12
2.06949e-12
3.22424e-13
4.69382e-15
9.71156e-16
1.23159e-17
1.51349e-19
3.94067e-19
2.58251e-17
1.43268e-12
0.00147477
2.58535
9.69535
2.19062
3.05759e-11
2.06525e-11
1.80676e-11
1.26323e-11
8.85615e-12
4.37839e-12
1.10172e-12
4.21777e-13
3.07696e-14
4.08081e-15
2.12375e-16
3.88947e-18
2.39003e-17
3.25261e-15
1.13654e-13
7.81288e-05
2.87918
112.678
0.127248
2.91385e-11
2.11082e-11
1.75302e-11
1.34331e-11
7.85076e-12
3.95074e-12
1.67179e-12
5.25962e-13
9.30962e-14
9.67211e-15
2.20975e-15
3.93301e-16
2.87133e-16
1.03918e-15
8.56752e-14
1.73775e-11
4.73821e-09
0.00332763
0.000615459
3.34443e-11
2.242e-11
2.06038e-11
1.54896e-11
1.0959e-11
8.04446e-12
3.38229e-12
2.11235e-12
1.91233e-13
2.12952e-13
1.63494e-14
2.71477e-15
7.85461e-16
1.63418e-16
1.57641e-15
1.25273e-14
3.43132e-14
4.13834e-16
5.86184e-06
3.23531e-11
2.54014e-11
1.74262e-11
1.61499e-11
1.26621e-11
7.61699e-12
3.92212e-12
1.41677e-12
4.27878e-13
2.26962e-13
1.89558e-13
1.3439e-14
2.60082e-15
1.07373e-15
1.18691e-14
2.14984e-14
4.64563e-16
1.01101e-17
0.000216534
3.61042e-11
2.69403e-11
2.04264e-11
2.0138e-11
1.68396e-11
9.46241e-12
6.27735e-12
4.66686e-12
2.25338e-12
6.85064e-13
1.54973e-13
2.42224e-14
1.34415e-14
6.84206e-15
8.30645e-15
3.98193e-17
1.2719e-17
1.51913e-17
0.000475724
3.56259e-11
3.00714e-11
2.20025e-11
1.85255e-11
1.55886e-11
1.1953e-11
6.72139e-12
3.71725e-12
2.31456e-12
1.26181e-12
8.74725e-13
1.93955e-13
1.29817e-13
9.17591e-14
2.61524e-13
5.74312e-14
5.14292e-18
9.96039e-16
0.000276666
)
;
    }
    fineplugLeft
    {
        type            cyclicAMI;
        value           nonuniform List<scalar> 
20
(
10.7478
22.5182
43.5945
17.6269
2.43135
1.02202
0.817764
0.810362
6.21618e-16
8.39039e-17
1.50317e-14
1.17386e-11
2.04093e-07
0.000415564
0.261918
0.517372
1.39455
13.4155
10.0991
44.4262
)
;
    }
    fineplugRight
    {
        type            cyclicAMI;
        value           nonuniform List<scalar> 
20
(
3.77236
5.33632
2.905
1.55788
0.783013
0.244594
0.103898
0.000534848
8.5771e-05
0.000192447
3.98114e-09
0.000846513
2.66042e-05
0.000711602
0.012807
1.7788
0.329182
107.258
2.00534
2.5365
)
;
    }
    inletOutletLeft
    {
        type            cyclicAMI;
        value           nonuniform List<scalar> 
20
(
10.7478
22.5182
43.5945
17.6269
2.43135
1.02202
0.817764
0.810362
6.21618e-16
8.39039e-17
1.50317e-14
1.17386e-11
2.04093e-07
0.000415564
0.261918
0.517372
1.39455
13.4155
10.0991
44.4262
)
;
    }
    inletLeft
    {
        type            calculated;
        value           uniform 5.26945e-05;
    }
    inletWallsLeft
    {
        type            nutkWallFunction;
        Cmu             0.09;
        kappa           0.41;
        E               9.8;
        value           nonuniform List<scalar> 
40
(
0.0240117
0.0284651
0.0991859
0.124925
0.319409
0.638376
0.615186
0.531259
0.45864
0.402002
0.356078
0.316297
0.279448
0.249583
0.229606
0.211487
0.198336
0.185541
0.181443
0.166019
0.107133
0.130046
0.113514
0.111371
0.0907614
0.0892514
0.0772699
0.0723568
0.0650648
0.0617757
0.0567008
0.0510582
0.0458384
0.0436836
0.0371945
0.0352263
0.0329616
0.0410503
0.0425059
0.0276314
)
;
    }
    inletFacesLeft
    {
        type            calculated;
        value           nonuniform List<scalar> 
800
(
2.47391
6.40648
13.0127
0.320224
0.0358696
0.0113533
1.79461e-05
8.84689e-09
1.94583e-18
5.01018e-19
1.04879e-16
7.76597e-16
3.89067e-12
0.385861
0.00966781
0.0319428
15.6704
0.270775
4.64229
1.54616
2.72099
2.77771
0.169812
0.0110246
0.000210971
1.77249e-06
5.47801e-09
4.31951e-12
2.68907e-13
3.88201e-15
4.23026e-17
2.04364e-17
1.28985e-15
6.28247e-17
0.000307845
0.000146247
47.3269
1.05106
8.11087
1.90386
2.78688
3.02063
0.349538
0.050833
0.00294059
0.000381028
3.93482e-05
3.00957e-06
3.80398e-07
8.7749e-08
5.08938e-12
2.67802e-13
3.46684e-14
2.54847e-16
2.57639e-23
1.04905e-11
0.114026
0.576202
4.133
1.64529
2.99321
1.9552
0.246583
0.0189808
0.000823875
7.93063e-07
6.53771e-12
6.47842e-10
1.70404e-17
1.03209e-15
1.33804e-13
2.278e-12
1.96085e-14
4.51233e-21
1.94431e-20
5.49453e-21
2.18994e-13
2.49183
5.8537
1.61197
3.2062
2.38874
0.266577
0.0318273
0.00217999
0.00229927
6.59346e-10
4.20487e-15
1.354e-13
1.53477e-11
3.63425e-12
3.36669e-12
1.9227e-13
5.09016e-15
1.40972e-16
3.93855e-16
0.000666897
5.84784
15.5539
1.29375
3.50107
1.99556
0.25476
0.00793412
9.31021e-05
5.62735e-07
1.14112e-09
1.59547e-10
5.73626e-11
3.59192e-12
3.37356e-13
3.47783e-12
2.5879e-12
5.62663e-13
4.47022e-13
1.12881e-18
7.45438e-06
4.30901
15.5743
1.27062
3.82793
1.74747
0.405135
0.00929617
0.00019766
2.9691e-07
9.87222e-09
3.21025e-09
2.45013e-10
2.84562e-11