/*--------------------------------*- C++ -*----------------------------------*\
| =========                 |                                                 |
| \\      /  F ield         | OpenFOAM: The Open Source CFD Toolbox           |
|  \\    /   O peration     | Version:  4.1                                   |
|   \\  /    A nd           | Web:      www.OpenFOAM.org                      |
|    \\/     M anipulation  |                                                 |
\*---------------------------------------------------------------------------*/
FoamFile
{
    version     2.0;
    format      ascii;
    class       volScalarField;
    location    "1";
    object      p;
}
// * * * * * * * * * * * * * * * * * * * * * * * * * * * * * * * * * * * * * //

dimensions      [0 2 -2 0 0 0 0];

internalField   nonuniform List<scalar> 
1280
(
-12473.3
-15860.9
-10956.9
-16804.4
-19901.1
-20113.9
-24847.1
-30302.1
-31700.5
-31476.7
-39996.9
-43407.4
-43844.2
-54331
-59511.6
-62193.7
-75212
-82992.8
-121424
-141824
-169296
-186691
-203566
-216973
-228135
-242971
-277564
-264524
-272870
-290586
-309252
-328298
-348061
-368577
-389072
-412064
-444133
-489411
-534926
-572656
-750507
-684652
-701140
-699327
-769725
-770045
-772114
-947463
-17268.5
8.95349e+07
2.0327e+06
-1.29702e+06
732985
985925
658192
415860
569296
548450
466741
426001
489358
479160
449332
423212
400190
376474
349283
320905
292154
263349
233639
207324
165754
-29675.8
311162
322042
308341
292165
283529
266526
242477
362516
56838.8
113577
32826.4
16704.7
34396.1
22544
14136.1
24549.3
16060.8
9401.67
14033.4
10337
3846.07
1036.85
6006.48
-671.043
-4884.68
519.981
0.106066
0.354367
0.616491
0.987185
1.50072
2.25367
3.40549
5.25351
8.34597
13.6533
22.7478
38.0592
63.7786
95.8933
89.0081
590.523
-897.102
-569.12
1410.14
0.286547
0.984437
1.72064
2.74997
4.1647
6.23198
9.3892
14.4615
22.9807
37.6823
63.1065
106.756
181.482
278.959
364.636
1493.6
-1895.38
-1986.12
4599.8
0.443107
1.59419
2.82248
4.52609
6.85583
10.242
15.382
23.5891
37.3018
60.8875
101.742
172.511
292.795
452.669
714.489
2183.76
-2405.62
-4043.77
8813.18
0.580615
2.15827
3.81927
6.12115
9.24746
13.7634
20.5643
31.3392
49.2249
79.8809
133.216
226.695
384.633
606.699
1116.44
2747.7
-3299.5
-7064.55
15661.1
0.696752
2.6841
4.72955
7.56891
11.3932
16.8734
25.0373
37.824
58.8255
94.5715
156.921
266.83
450.711
728.987
1499.44
3315.31
-3972.27
-13341.5
22806.7
0.789525
3.15821
5.51869
8.80954
13.1983
19.4268
28.5788
42.6955
65.5342
103.968
170.884
287.953
477.547
773.381
1764.64
4188.75
-4501.73
-25604.2
28956.3
0.856715
3.5725
6.17485
9.82659
14.6431
21.4019
31.1684
45.9381
69.3313
107.999
174.833
288.288
463.88
715.383
1712.04
4931.26
-4242.86
-42313
12057.1
0.895128
3.90987
6.67498
10.5872
15.6864
22.7509
32.7626
47.5379
70.2848
106.826
167.848
265.613
404.672
537.639
1150.92
4767.11
-3290.49
-74419.1
-36112.9
0.910768
4.15998
7.0146
11.088
16.3344
23.5044
33.4518
47.7295
68.9619
101.511
152.88
232.162
335.229
430.024
1108.38
6747.47
-145.145
-129741
12933
0.898895
4.27099
7.13922
11.2532
16.4932
23.5548
33.136
46.4583
65.3982
92.5653
131.782
182.904
222.076
225.651
623.362
6422.76
-1981.29
-116452
40879.6
0.894247
4.2519
7.09176
11.1472
16.2602
23.0458
32.0205
43.9937
59.8696
80.0478
103.379
118.346
81.5287
-43.7867
-121.538
2070.28
-34992
-47601.2
-650874
0.896946
4.10241
6.87117
10.7661
15.6252
21.9538
30.06
40.2747
52.4091
64.3086
69.3987
49.1263
-41.1257
-249.62
-565.882
-569.038
-35373
-6463.56
-451346
0.872639
3.81522
6.43884
10.0545
14.5109
20.1811
27.1605
35.3263
43.5958
47.9902
37.8363
-9.42283
-126.773
-371.093
-858.857
-2226.96
-22833.7
10045.1
-217138
0.827776
3.44958
5.8668
9.12878
13.1012
18.0315
23.8406
30.0642
35.053
34.0355
15.696
-37.7478
-143.616
-350.867
-892.144
-3593.77
-15877.5
10882.4
-141165
0.757146
3.01953
5.16899
8.0146
11.4396
15.5846
20.2486
24.7557
27.1946
22.7174
0.445302
-57.626
-172.431
-383.678
-957.207
-3851.74
-12235.6
6174.5
-96109.3
0.664325
2.5441
4.37401
6.75806
9.59727
12.9519
16.557
19.6552
20.3324
14.1427
-8.35105
-63.105
-171.204
-371.5
-919.306
-3432.56
-9864.6
2636.18
-69669.7
0.551512
2.03157
3.49516
5.37966
7.60316
10.1742
12.8183
14.8128
14.4548
8.0398
-11.8928
-57.7237
-145.477
-298.674
-648.101
-2664.18
-6476.03
-1571.55
-43503.7
0.420241
1.49376
2.56373
3.9323
5.53711
7.36306
9.17627
10.3865
9.66151
4.24116
-11.15
-44.7783
-105.425
-191.373
-270.679
-1770.03
-3627.33
-3008.16
-30966.7
0.272213
0.920682
1.55532
2.36938
3.31803
4.3825
5.40434
5.99715
5.31419
1.6687
-7.9844
-27.9696
-61.5839
-89.8214
45.5733
-984.944
-1576.48
-4975.01
-24224.5
0.101207
0.33242
0.55917
0.854692
1.20508
1.60639
2.00828
2.28146
2.13727
0.997367
-2.17542
-8.84745
-20.6517
-26.772
146.513
-546.212
-441.921
-3212.42
-12964.6
-289428
-286009
-283511
-282023
-280582
-279280
-278598
-278820
-279304
-280118
-281282
-282786
-284498
-286564
-288633
-291220
-293961
-297757
-301772
-306910
-277318
-277147
-276903
-276870
-276678
-276698
-276743
-276926
-277202
-277589
-278084
-278710
-279400
-280282
-281108
-282290
-283550
-285027
-285979
-287206
-277223
-277229
-277031
-277089
-276951
-276985
-276953
-277008
-277075
-277186
-277330
-277521
-277711
-277997
-278195
-278600
-278810
-279256
-279410
-279808
-277143
-277240
-277085
-277214
-277104
-277173
-277143
-277178
-277201
-277241
-277290
-277359
-277411
-277527
-277551
-277732
-277732
-277904
-277955
-278069
-277100
-277233
-277064
-277224
-277114
-277189
-277155
-277180
-277186
-277200
-277217
-277242
-277250
-277304
-277288
-277375
-277346
-277428
-277422
-277489
-277157
-277317
-277123
-277307
-277188
-277268
-277232
-277255
-277257
-277264
-277272
-277284
-277283
-277315
-277290
-277348
-277309
-277355
-277349
-277384
-277189
-277379
-277150
-277361
-277234
-277316
-277282
-277303
-277305
-277310
-277317
-277325
-277324
-277348
-277329
-277373
-277337
-277387
-277372
-277378
-277266
-277485
-277214
-277450
-277314
-277394
-277359
-277376
-277377
-277378
-277382
-277384
-277383
-277396
-277382
-277411
-277382
-277423
-277413
-277414
-277388
-277647
-277330
-277589
-277442
-277525
-277486
-277502
-277501
-277499
-277501
-277498
-277495
-277497
-277486
-277496
-277476
-277497
-277491
-277478
-277555
-277848
-277513
-277769
-277608
-277708
-277657
-277676
-277676
-277674
-277676
-277671
-277669
-277662
-277653
-277653
-277646
-277668
-277660
-277627
-277760
-278032
-277746
-277945
-277776
-277909
-277840
-277871
-277875
-277882
-277895
-277901
-277914
-277917
-277926
-277931
-277937
-277937
-277927
-277891
-277902
-278124
-277908
-278008
-277856
-278007
-277932
-277973
-277980
-277994
-278015
-278033
-278062
-278083
-278117
-278146
-278184
-278203
-278224
-278228
-277794
-278048
-277792
-277817
-277695
-277827
-277772
-277810
-277813
-277826
-277840
-277853
-277877
-277896
-277933
-277963
-278004
-278051
-278119
-278172
-277393
-277740
-277471
-277533
-277366
-277422
-277404
-277430
-277426
-277432
-277437
-277437
-277445
-277446
-277462
-277471
-277493
-277537
-277604
-277638
-277250
-277602
-277533
-278099
-277912
-277777
-277720
-277678
-277616
-277571
-277532
-277493
-277464
-277428
-277407
-277376
-277359
-277367
-277372
-277340
-277422
-277412
-277243
-278157
-278645
-278456
-278353
-278297
-278204
-278115
-278031
-277941
-277857
-277764
-277680
-277581
-277498
-277421
-277333
-277219
-279245
-279046
-278551
-278331
-278684
-278704
-278636
-278661
-278651
-278622
-278582
-278522
-278447
-278349
-278236
-278093
-277946
-277760
-277579
-277326
-283955
-284305
-283637
-283857
-283417
-283458
-283335
-283248
-283161
-283075
-282983
-282885
-282779
-282663
-282534
-282394
-282250
-282083
-281917
-281510
-284179
-285948
-285322
-286191
-286365
-286807
-287114
-287423
-287665
-287857
-287989
-288057
-288059
-287992
-287853
-287640
-287358
-286992
-286500
-286062
-232620
-238744
-242436
-246601
-250260
-253771
-257035
-260110
-262995
-265710
-268268
-270684
-272971
-275144
-277207
-279216
-281194
-282912
-284784
-287333
341367
335233
331549
327387
323741
320244
316994
313934
311062
308355
305801
303384
301089
298904
296821
294788
292777
291015
289098
286534
289766
288073
288676
287859
287673
287211
286888
286550
286273
286036
285855
285730
285666
285668
285739
285887
286099
286365
286745
287134
289736
289415
290183
289813
290134
290063
290133
290136
290150
290159
290171
290190
290219
290259
290314
290384
290467
290562
290632
291021
293881
293727
294199
293728
293976
293809
293810
293775
293751
293746
293756
293786
293835
293910
294002
294124
294259
294430
294557
294797
294590
294397
294375
294208
294353
294216
294283
294279
294301
294340
294382
294437
294495
294568
294633
294715
294783
294857
294905
294989
294735
294600
294648
294484
294403
294373
294466
294469
294520
294557
294589
294625
294652
294685
294702
294731
294743
294755
294754
294772
294558
294418
294631
294525
294508
294524
294586
294570
294610
294622
294636
294653
294661
294677
294679
294693
294695
294698
294695
294710
294486
294198
294604
294479
294538
294499
294552
294526
294552
294554
294560
294570
294572
294583
294582
294593
294593
294593
294589
294607
294519
294129
294568
294371
294512
294434
294497
294483
294504
294512
294520
294533
294537
294549
294549
294562
294565
294566
294565
294590
294592
294201
294644
294403
294584
294499
294555
294551
294563
294574
294580
294591
294595
294606
294607
294617
294624
294624
294624
294652
294680
294356
294737
294486
294666
294586
294632
294628
294635
294643
294647
294654
294658
294663
294668
294670
294683
294676
294680
294704
294755
294474
294810
294555
294722
294643
294684
294676
294680
294686
294687
294691
294695
294694
294705
294696
294718
294701
294711
294729
294797
294553
294849
294604
294758
294675
294715
294701
294703
294706
294705
294705
294710
294701
294720
294696
294731
294698
294718
294728
294826
294611
294861
294637
294776
294690
294727
294707
294707
294704
294701
294697
294704
294687
294714
294678
294721
294688
294710
294710
294824
294641
294844
294644
294763
294673
294704
294676
294672
294665
294660
294653
294663
294642
294683
294639
294703
294664
294699
294695
294928
294767
294916
294728
294814
294709
294720
294674
294656
294638
294628
294621
294642
294630
294692
294678
294739
294791
294820
294835
295306
295145
295217
295003
295015
294855
294804
294701
294634
294577
294545
294533
294575
294602
294734
294806
294968
295132
295303
295466
296881
296676
296613
296282
296114
295739
295459
295124
294856
294636
294500
294453
294541
294685
295038
295365
295908
296404
297012
297612
297944
298045
298199
297866
297533
296772
295976
295086
294348
293830
293601
293694
294165
294918
296119
297428
299154
300788
302687
304529
323591
319432
315740
310856
305719
299387
293037
288813
286176
284937
284995
286226
288516
291650
295599
299945
304915
309945
315722
321222
)
;

boundaryField
{
    outletWall
    {
        type            fixedValue;
        value           uniform 0;
    }
    fineWalls
    {
        type            zeroGradient;
    }
    fineFrontAndBack
    {
        type            zeroGradient;
    }
    fineplugLeft
    {
        type            cyclicAMI;
        value           nonuniform List<scalar> 
20
(
-360059
-348403
-336088
-323995
-315389
-308721
-302967
-297211
-291889
-286876
-282212
-278017
-275961
-278480
-272018
-270093
-269013
-267522
-266146
-265402
)
;
    }
    fineplugRight
    {
        type            cyclicAMI;
        value           nonuniform List<scalar> 
20
(
354849
348410
337822
328575
319994
311774
303176
294994
287411
280666
274677
270406
264201
256342
301742
308983
310353
311025
312251
312178
)
;
    }
    inletOutletLeft
    {
        type            cyclicAMI;
        value           nonuniform List<scalar> 
20
(
-360059
-348403
-336088
-323995
-315389
-308721
-302967
-297211
-291889
-286876
-282212
-278017
-275961
-278480
-272018
-270093
-269013
-267522
-266146
-265402
)
;
    }
    inletLeft
    {
        type            zeroGradient;
    }
    inletWallsLeft
    {
        type            zeroGradient;
    }
    inletFacesLeft
    {
        type            zeroGradient;
    }
    inletOutletRight
    {
        type            cyclicAMI;
        value           nonuniform List<scalar> 
20
(
354849
348410
337822
328575
319994
311774
303176
294994
287411
280666
274677
270406
264201
256342
301742
308983
310353
311025
312251
312178
)
;
    }
    inletRight
    {
        type            zeroGradient;
    }
    inletWallsRight
    {
        type            zeroGradient;
    }
    inletFacesRight
    {
        type            zeroGradient;
    }
}


// ************************************************************************* //
