/*--------------------------------*- C++ -*----------------------------------*\
| =========                 |                                                 |
| \\      /  F ield         | OpenFOAM: The Open Source CFD Toolbox           |
|  \\    /   O peration     | Version:  4.1                                   |
|   \\  /    A nd           | Web:      www.OpenFOAM.org                      |
|    \\/     M anipulation  |                                                 |
\*---------------------------------------------------------------------------*/
FoamFile
{
    version     2.0;
    format      ascii;
    class       surfaceScalarField;
    location    "1";
    object      phi;
}
// * * * * * * * * * * * * * * * * * * * * * * * * * * * * * * * * * * * * * //

dimensions      [0 3 -1 0 0 0 0];

internalField   nonuniform List<scalar> 
2360
(
295799
302559
-6759.93
302559
302559
308907
-6348.22
308907
308907
308907
329156
-20248.7
329155
329156
356033
-26877.7
356033
356033
378015
-21981.5
378015
378015
407229
-29214.2
407230
407230
410196
415218
420525
426232
432848
439931
407603
40159
415417
423224
431289
439746
448664
458055
468047
478461
489482
500987
514228
529475
549070
727349
-178278
727349
727349
727349
621949
105400
621949
621949
621949
1.28782e+06
-665872
1.28782e+06
1.28782e+06
1.34635e+06
-58533
1.34635e+06
1.34635e+06
1.34635e+06
1.16119e+06
185168
1.16119e+06
1.16119e+06
1.16119e+06
688518
472668
688867
689558
691978
695641
701002
707556
715286
723990
733566
743952
755110
767040
779533
456022
338090
468312
480538
492832
505502
518574
532427
532427
532427
455631
76796.6
455631
455631
409371
46259.7
409371
409371
369612
39758.6
369612
369612
335419
34193.1
335419
335419
335419
311762
23657.8
311762
311762
310479
1282.66
-1111.2
-2774.42
-1224.46
-4901.85
-1411.92
-6497.11
-1668.81
-8246.34
-2004.06
-10204.3
-2430.4
-12486.1
-2968.99
-15212.7
-3650.58
-18546.3
-4519.32
-22718.6
-5634.91
-28073.7
-7064.84
-35137.4
-8841.46
-44740.8
-10840.8
-58145.6
-12097.2
-76777
-8596.1
-104399
-13801
-155471
-29786.1
-188220
-22543.9
-118058
-351148
-1747.24
-2703.1
-1929.31
-4719.78
-2228.51
-6197.9
-2633.78
-7841.07
-3159.89
-9678.2
-3828.41
-11817.6
-4676.08
-14365.1
-5758.4
-17464
-7158.74
-21318.3
-8999.32
-26233.1
-11446.9
-32689.8
-14674.3
-41513.4
-18580.4
-54239.5
-21373.7
-73983.6
-18993.6
-106780
-26690.6
-147774
-54138.5
-160772
-56922.7
-115274
-384413
-2149.39
-2600.99
-2384.04
-4485.14
-2759.5
-5822.44
-3262.92
-7337.65
-3913.15
-9027.97
-4738.15
-10992.6
-5785.86
-13317.4
-7130.49
-16119.3
-8887.09
-19561.7
-11237.3
-23882.9
-14471.7
-29455.4
-18986.3
-36998.9
-24774.5
-48451.3
-29881.9
-68876.2
-32822.6
-103839
-45741.2
-134855
-75798.6
-130714
-83696.1
-107376
-433916
-2572.03
-2454.84
-2879.13
-4178.04
-3346.93
-5354.63
-3965.23
-6719.35
-4757.29
-8235.9
-5757.86
-9992.04
-7025.76
-12049.5
-8652.82
-14492.3
-10784.8
-17429.6
-13671
-20996.7
-17784.1
-25342.4
-23922.8
-30860.1
-32537
-39837.1
-42520.3
-58893
-54715.2
-91644
-75453.8
-114116
-110504
-95663.9
-115611
-102270
-509769
-2994.45
-2254.19
-3386.21
-3786.28
-3954.97
-4785.87
-4696
-5978.32
-5636.57
-7295.34
-6817.81
-8810.8
-8307.74
-10559.5
-10212.6
-12587.4
-12703.2
-14939
-16096.7
-17603.2
-21119.1
-20320
-29287.7
-22691.5
-42371.1
-26753.6
-61732.4
-39531.7
-88559.6
-64816.7
-118107
-84569.4
-154226
-59544.2
-158106
-98390.3
-621615
-3434.16
-1986.94
-3925.83
-3294.62
-4607.85
-4103.85
-5484.35
-5101.82
-6586.1
-6193.6
-7960.1
-7436.8
-9681.33
-8838.31
-11866.1
-10402.7
-14703.4
-12101.7
-18578
-13728.5
-24560.7
-14337.3
-35279.3
-11972.9
-54474.8
-7558.17
-86378.3
-7628.15
-131516
-19679
-175267
-40819
-215401
-19409.9
-237878
-75913.1
-782697
-3910.35
-1638.68
-4520.63
-2684.35
-5331.58
-3292.9
-6361.29
-4072.1
-7643.15
-4911.74
-9229.39
-5850.56
-11199
-6868.71
-13673.8
-7927.85
-16859.6
-8915.93
-21214
-9374.18
-28108.8
-7442.43
-40545.1
463.284
-62637.1
14533.8
-99716.2
29451
-153295
33900.1
-210750
16635.3
-287207
57047.3
-411831
48711
-856437
-4442.83
-1193.77
-5193.39
-1933.79
-6152.1
-2334.19
-7357.51
-2866.69
-8844.44
-3424.82
-10669.7
-4025.26
-12913.4
-4625
-15699.7
-5141.58
-19250.5
-5365.13
-24021.2
-4603.44
-30716.6
-747.101
-39811
9557.73
-52597.2
27320
-71160.5
48014.4
-95202.4
57941.9
-130304
51737.4
-257624
184367
-465867
256954
-849637
-5033.09
-641.068
-5941.93
-1024.95
-7064.03
-1212.09
-8464.26
-1466.45
-10177.7
-1711.42
-12265.4
-1937.48
-14807.1
-2083.3
-17920.9
-2027.8
-21798.1
-1487.97
-26669.3
267.713
-32348.4
4932.08
-37979
15188.3
-43609.4
32950.5
-53153.5
57558.4
-87620.8
92409.2
-199461
163577
-377958
362865
-372899
251895
-1.03737e+06
-5578.97
9.79602
-6631.3
27.3906
-7898.69
55.2887
-9470.42
105.282
-11380.4
198.53
-13691.2
373.324
-16477.9
703.421
-19837.5
1331.81
-23869.3
2543.84
-28510
4908.36
-33116.5
9538.65
-36305.5
18377.3
-37326.5
33971.5
-39918.7
60150.6
-61540.4
114031
-149857
251894
-367318
580326
-392581
277158
-1.48848e+06
-5574.69
659.287
-6623.62
1076.32
-7884.6
1316.26
-9444.63
1665.31
-11333.1
2087
-13604.4
2644.65
-16317.8
3416.82
-19539.1
4553.13
-23306.4
6311.06
-27483.9
9085.86
-31348.7
13403.5
-33023.6
20052.2
-30050.8
30998.7
-22368.6
52468.3
-6525.21
98187.5
29873.3
215495
189179
421020
76648.7
389688
-2.0777e+06
-5022.79
1208.99
-5923.89
1977.42
-7031
2423.38
-8403.33
3037.64
-10064.6
3748.29
-12054.6
4634.62
-14409.9
5772.09
-17159.4
7302.66
-20300.7
9452.36
-23690
12475.2
-26598.5
16311.9
-26681.3
20135.1
-19847.9
24165.3
-4020.94
36641.3
27214.5
66952.1
94335
148375
387467
127889
435219
341936
-1.53709e+06
-4427.45
1649.73
-5166.8
2716.77
-6103.47
3360.04
-7267.41
4201.58
-8676.44
5157.32
-10354.9
6313.08
-12319
7736.17
-14563.5
9547.19
-17033.9
11922.7
-19526
14967.3
-21242.6
18028.5
-19662.6
18555.1
-10418.2
14921
11343.7
14879.3
41127.6
37168.2
82922.3
106580
269235
-58424.3
392794
218377
-1.32257e+06
-3891.12
1993.01
-4487.82
3313.47
-5271.73
4143.96
-6250.33
5180.17
-7436
6342.99
-8841.13
7718.21
-10468
9362.99
-12288.9
11368.2
-14210.1
13843.9
-16027.5
16784.7
-17511.9
19512.9
-19079.2
20122.4
-22516.9
18358.7
-28827.8
21190.3
-31823.5
40163.8
6113.61
68642.9
65351.5
-117662
280484
3244.54
-1.00193e+06
-3412.68
2254.91
-3889.66
3790.45
-4542.13
4796.44
-5362.65
6000.69
-6359.1
7339.44
-7535.43
8894.54
-8885.34
10712.9
-10372.2
12855
-11897
15368.7
-13290.7
18178.4
-14533.1
20755.3
-16498.7
22088.1
-21340.6
23200.6
-30665.1
30514.8
-37376.6
46875.3
-4007.99
35274.3
11766.4
-133436
216684
-201673
-814457
-2972.51
2450.27
-3349.74
4167.68
-3889.04
5335.74
-4574.14
6685.78
-5409.64
8174.94
-6394.27
9879.18
-7517.34
11836
-8740.72
14078.4
-9975.22
16603.2
-11081.4
19284.5
-12010.2
21684.1
-13073.3
23151.2
-14379.7
24506.9
-13731.1
29866.3
1564.82
31579.4
48324.1
-11485
86266
-171378
166606
-282013
-669832
-2551.5
2591.62
-2845.43
4461.62
-3286.34
5776.65
-3853.51
7252.95
-4549.59
8871.02
-5371.03
10700.6
-6306.37
12771.3
-7320.9
15092.9
-8338.95
17621.3
-9240.55
20186.1
-9916.79
22360.3
-10234.2
23468.6
-8991.32
23264.1
-1427.68
22302.7
28422.6
1729.16
67931.7
-50994.2
98640.1
-202087
121910
-305283
-574800
-2132.07
2689.8
-2355.98
4685.53
-2709.32
6129.98
-3170.59
7714.22
-3741.73
9442.15
-4419.28
11378.2
-5194.06
13546.1
-6038.5
15937.4
-6892.45
18475.2
-7652.97
20946.6
-8178.58
22885.9
-8171.44
23461.4
-6244.21
21336.9
1871.27
14187.2
29165.8
-25565.4
58720.6
-80549
87039.4
-230405
89614
-307857
-505434
-1734.84
2758.39
-1909.47
4860.15
-2193.19
6413.7
-2568.87
8089.91
-3039.36
9912.65
-3604.1
11942.9
-4259.58
14201.6
-4989.87
16667.6
-5755.87
19241.2
-6481.95
21672.7
-7039.31
23443.3
-7143.56
23565.7
-5688.72
19882
-1173.28
9671.77
17382.2
-44120.9
39421.2
-102588
64445.4
-255430
58359.5
-301771
-453423
-1105.5
-1215.49
-1396.01
-1639.58
-1949.67
-2328.81
-2779.52
-3299.16
-3874.1
-4469.07
-5006.86
-5295.14
-4513.33
-1792.97
5317.64
22687.7
37278.4
26159.5
5928.69
-8894.34
10188.4
-9280.87
13385.7
-8503.83
15257.4
-7576.97
16142.7
-7501.37
16406
-7346.54
16308.4
-7733.22
16503.7
-8008.93
16818.9
-8121.84
16985.1
-8231.97
16900.2
-8371.39
16544.4
-8562.44
15876.5
-8722.59
14920.5
-9036.18
13652.5
-9145.42
12330.1
-9698.34
10655.4
-9831.12
8252.34
-10838
4189.88
-11184.5
-15405.1
1378.75
-10272.4
2532.9
-10434.3
3330.26
-9300.57
4099.64
-8345.67
5076.27
-8477.48
6086.01
-8355.7
6735.68
-8382.46
7100.19
-8372.94
7396.4
-8417.67
7643.11
-8478.25
7815.91
-8543.87
7901.07
-8647.24
7879.99
-8701.28
7752.26
-8908.16
7470.29
-8863.29
7072.36
-9300.25
6354.25
-9113
5261.92
-9745.65
3039.01
-8961.6
-12366.1
896.824
-11168.6
1373.29
-10910.1
1570.91
-9497.47
1641.15
-8415.11
1831.9
-8667.55
2011.58
-8534.61
2239.71
-8609.95
2458.3
-8590.83
2651.43
-8610.23
2801.93
-8628.12
2905.98
-8647.41
2953.21
-8693.91
2941.62
-8689.24
2854.82
-8820.88
2692.62
-8700.7
2453.64
-9060.88
2069.21
-8728.3
1626.92
-9303.1
1182.04
-8516.49
-11184.1
749.371
-11917.6
1053.01
-11213.4
1197.29
-9641.35
1222.69
-8440.05
1289.05
-8733.52
1355.23
-8600.36
1431.05
-8685.39
1495.32
-8654.68
1550.8
-8665.35
1594.7
-8671.63
1624.06
-8676.44
1629.91
-8699.41
1619.12
-8678.14
1567.16
-8768.61
1507.87
-8641.09
1336.36
-8889.11
1190.26
-8581.96
926.174
-9038.81
832.645
-8422.76
-10351.4
685.216
-12602.3
1097.04
-11624.5
1251.54
-9795.11
1215.49
-8403.18
1189.09
-8706.39
1170.26
-8580.74
1154.17
-8668.59
1140.51
-8640.28
1125.36
-8649.54
1107.23
-8652.81
1085.77
-8654.39
1055.21
-8668.22
1025.71
-8648.1
972.19
-8714.55
943.088
-8611.49
848.848
-8794.43
828.105
-8560.93
685.356
-8895.82
661.009
-8398.18
-9690.4
695.782
-13298
1204.97
-12133.6
1391.46
-9981.56
1335.18
-8346.83
1266.94
-8638.1
1215.3
-8529.04
1166.61
-8619.87
1121.42
-8595.01
1075.81
-8603.9
1031.29
-8608.23
988.471
-8611.54
942.307
-8621.99
903.957
-8609.72
849.113
-8659.66
819.872
-8582.23
748.163
-8722.69
725.061
-8537.81
653.896
-8824.65
557.479
-8301.75
-9132.92
725.393
-14023.3
1342.06
-12750.1
1581.03
-10220.3
1518.17
-8283.74
1417.49
-8537.23
1343.17
-8454.5
1270.83
-8547.34
1204.97
-8528.95
1138.99
-8537.77
1075.76
-8544.81
1016.2
-8551.83
955.788
-8561.43
906.353
-8560.18
843.629
-8596.8
812.199
-8550.71
741.687
-8652.09
727.477
-8523.55
670.786
-8767.92
590.066
-8221
-8542.85
806.689
-14830.2
1536.17
-13480
1814.19
-10498.8
1727.26
-8197.26
1604
-8414.39
1503.4
-8354.34
1410.18
-8454.52
1322.31
-8441.5
1234.85
-8450.67
1150.54
-8460.88
1070.77
-8472.39
991.213
-8482.21
923.683
-8492.92
844.963
-8518.36
798.958
-8504.94
716.542
-8569.9
702.547
-8509.69
610.798
-8676.3
626.166
-8236.49
-7916.69
951.92
-15782
1679.3
-14207.1
1900.17
-10719.4
1788.63
-8085.44
1702.02
-8327.53
1600.54
-8252.61
1515.52
-8369.26
1426.86
-8352.61
1337.6
-8361.18
1248.79
-8371.87
1162.36
-8385.74
1074.57
-8394.24
996.373
-8414.53
907.052
-8428.86
847.335
-8445.05
755.927
-8478.32
725.596
-8479.27
603.441
-8554.05
591.866
-8224.82
-7324.82
1046.99
-16829.2
1528.14
-14688.5
1566.21
-10757.8
1497.4
-8017
1519.84
-8350.3
1458.6
-8191.72
1421.08
-8332.03
1363.14
-8294.98
1301.46
-8299.76
1232.83
-8303.52
1159.65
-8312.78
1078.74
-8313.57
998.851
-8334.79
903.336
-8333.52
824.241
-8366.05
722.821
-8376.94
661.77
-8418.24
525.152
-8417.47
455.147
-8154.87
-6869.68
895.542
-17724.8
847.79
-14640.9
743.338
-10653.5
881.9
-8155.73
1017.91
-8486.46
1036.05
-8210.04
1072.23
-8368.35
1074.82
-8297.75
1069.54
-8294.63
1048.08
-8282.22
1012.64
-8277.49
961.38
-8262.45
899.541
-8273.09
817.905
-8252.03
734.503
-8282.75
621.749
-8264.24
520.875
-8317.41
363.024
-8259.68
261.504
-8053.44
-6608.18
314.198
-18039.4
-303.16
-14024
-308.51
-10648.8
116.532
-8581.56
296.275
-8666.97
446.321
-8360.83
575.253
-8497.97
664.225
-8387.4
730.754
-8361.78
766.906
-8318.97
774.235
-8285.37
754.002
-8242.73
709.142
-8228.68
641.093
-8184.44
554.424
-8196.43
431.306
-8141.32
292.169
-8178.4
134.576
-8102.28
78.854
-7997.98
-6529.32
-763.163
-17276.3
-1481.97
-13305.3
-1286.44
-10844.5
-719.347
-9148.86
-475.119
-8911.5
-74.986
-8761.26
243.908
-8817.18
497.565
-8641.34
683.732
-8548.25
806.416
-8441.93
869.013
-8348.25
878.51
-8252.49
839.76
-8190.21
764.705
-8109.63
654.837
-8086.84
518.79
-8005.5
352.924
-8012.75
189.961
-7939.52
130.211
-7938.46
-6399.12
-1879.05
-15397.4
-2382.79
-12801.6
-2102.74
-11124.7
-1462.93
-9788.93
-1001.98
-9372.91
-287.458
-9476.36
334.118
-9439.32
839.615
-9147.38
1215.64
-8924.78
1479.92
-8706.69
1639.52
-8508.31
1705.76
-8319.17
1685.87
-8170.73
1596.45
-8020.61
1442.34
-7933.12
1237.04
-7800.54
980.118
-7756.12
709.11
-7668.78
470.575
-7700.23
-5928.55
-2226.51
-13171
-2564.19
-12464
-2287.91
-11401
-1484.95
-10592
-628.371
-10229.7
338.033
-10443.1
1171.02
-10272.6
1856.68
-9833.37
2379.16
-9447.55
2758.29
-9086.11
3000.51
-8750.8
3116.83
-8435.77
3111.12
-8165.28
2998.6
-7908.34
2779.28
-7714.05
2464.68
-7486.17
2051.91
-7343.54
1566.93
-7183.99
976.703
-7110.24
-4951.85
-1095.87
-12075.3
-212.132
-13347.9
906.3
-12519.6
2224.88
-11910.7
3483.4
-11488.4
4324.65
-11284.6
4929.39
-10877.7
5425.4
-10329.7
5792.73
-9815.14
6031.18
-9324.83
6136.92
-8856.76
6110.71
-8409.81
5944.13
-7998.89
5639.92
-7604.35
5181.46
-7255.79
4578.75
-6883.66
3821.32
-6586.23
2934.22
-6297.03
1715.71
-5891.92
-3236.14
1681.01
-13756.4
3240.1
-14907.1
5022.54
-14302.1
6257.9
-13146.2
7412
-12642.6
8032.13
-11904.8
8457.52
-11303.2
8807.86
-10680.1
9080.83
-10088.2
9266.78
-9510.88
9355.18
-8945.27
9332.52
-8387.24
9172.14
-7838.63
8853.65
-7285.95
8336.3
-6738.56
7629.83
-6177.27
6725.07
-5681.58
5549.05
-5121.1
3397.2
-3740.26
161.059
1865.54
-15622.1
1297.27
-14338.9
1423.39
-14428.3
1444.95
-13167.8
1607.94
-12805.7
1788.03
-12085
2014.08
-11529.3
2284.08
-10950.2
2597.05
-10401.3
2943.09
-9857.04
3312.73
-9315.01
3690.01
-8764.62
4048.74
-8197.46
4365.67
-7602.98
4615.41
-6988.39
4841.01
-6402.95
5034.16
-5874.78
4780.47
-4867.48
2800.18
-1760.1
2961.24
-655.146
-14967
-2512.02
-12482.1
-4299.97
-12640.4
-5586.58
-11881.3
-6838.34
-11553.9
-7803.07
-11120.4
-8568.3
-10764.1
-9121.5
-10397.1
-9475.94
-10046.9
-9637.61
-9695.43
-9612.71
-9339.96
-9407.16
-8970.23
-9028.21
-8576.46
-8481.51
-8149.74
-7771.38
-7698.57
-6895.35
-7279.03
-5871.34
-6898.83
-4690.84
-6048.03
-2944.1
-3506.93
17.1386
-5867.07
-9249.25
-12789.7
-15571.1
-18025
-20045.5
-21709.6
-23006.8
-23953.7
-24549.2
-24789.2
-24659.4
-24135.9
-23185.7
-21784.2
-19963.3
-17762.1
-14710.2
-9117.14
-5778.51
14877.8
-9202.34
12523.2
-12760.7
12657.9
-15568.1
11906.9
-18045.4
11576.9
-20083.7
11137.9
-21763.5
10779.4
-23076
10412.1
-24038
10061.7
-24647.7
9709.25
-24899.9
9351.92
-24780.1
8979.93
-24264
8583.63
-23318.7
8154.37
-21920.1
7701.19
-20100.4
7280.03
-17896
6895.33
-14811.9
6015.79
-9104.38
3392.12
-4.38908
-1309.45
16186.6
-2990.12
14203.1
-4827.11
14494.2
-6161.98
13241.1
-7457.04
12871.4
-8442.31
12122.5
-9230.82
11567.4
-9783.67
10964.4
-10124.1
10401.7
-10259.9
9844.45
-10201.1
9292.59
-9955.24
8733.5
-9529.95
8157.87
-8931.01
7554.9
-8162.27
6931.94
-7220.24
6337.52
-6112.74
5787.47
-4825.3
4727.91
-2968.74
1534.71
-2973.14
169.755
16016.1
-331.999
14704
-494.165
14655.6
-423.268
13169.3
-265.025
12712.2
16.3602
11840.1
381.518
11201.3
804.737
10540.2
1272.09
9933.47
1764.93
9350.67
2272.16
8784.6
2779.07
8225.76
3260.7
7675.56
3694.85
7120.04
4059.45
6566.69
4399.72
5996.69
4708.8
5477.99
4552.64
4883.65
2593.69
3492.87
-379.46
1145.63
14870
2365.66
13483.6
3759.42
13261.4
4807.08
12121.2
5723.49
11795.5
6513.9
11049.3
7215.52
10499.3
7792.33
9962.96
8243.99
9481.48
8566.83
9027.45
8763.89
8587.21
8828.98
8160.31
8739.17
7765.06
8476.59
7382.29
8003.17
7039.77
7331.45
6668.11
6447.71
6361.48
5291.73
6039.38
3144.48
5639.6
2765.01
388.857
14480.5
1361.39
12510.4
2880.36
11741.8
4135.59
10865.2
5161.99
10768.4
5868.03
10342.4
6367.37
9999.33
6741.84
9587.77
6968.57
9254.13
7064.63
8930.73
7035.97
8615.31
6883.73
8311.94
6599.34
8048.9
6184.47
7796.62
5621.35
7602.34
4918.04
7370.92
4054.76
7224.35
3070.21
7023.51
1761.82
6947.37
4526.82
-619.997
15100.4
-577.887
12468.1
107.646
11056.2
991.766
9980.91
1960.19
9799.83
2616.33
9686.11
3081.24
9534.27
3466.27
9202.57
3728.37
8991.89
3895.55
8763.39
3960.21
8550.49
3925.34
8346.68
3790
8184.06
3565.87
8020.61
3248.66
7919.34
2847.87
7771.56
2350.62
7721.42
1779.37
7594.56
1124.74
7601.74
5651.56
-1227.18
16327.4
-1440.79
12681.6
-1253.11
10868.4
-732.638
9460.2
-108.809
9175.58
487.881
9088.91
960.915
9060.71
1359.85
8803.16
1657.74
8693.52
1874.05
8546.66
1998.57
8425.54
2038.44
8306.42
1997.18
8224.93
1889.86
8127.58
1716.96
8091.85
1492.8
7995.41
1210.71
8003.21
891.934
7913.06
609.577
7883.78
6261.14
-1039.14
17366.6
-1556.14
13198.7
-1472.82
10785.2
-969.222
8956.91
-586.792
8793.45
-111.189
8613.69
278.569
8671.21
580.808
8501.24
816.154
8458.35
979.498
8383.56
1072.16
8333
1101.79
8276.97
1073.28
8253.49
998.556
8202.43
878.889
8211.53
727.753
8146.61
540.895
8190.01
343.863
8110.05
229.685
7997.89
6490.82
-65.1435
17431.4
-773.084
13906.3
-792.801
10804.3
-352.444
8515.75
-76.0236
8516.12
211.5
8325.27
458.618
8423.26
617.973
8341.07
743.581
8332
816.749
8309.67
847.09
8302.02
838.128
8285.28
795.464
8295.59
721.708
8275.63
624.07
8308.67
500.048
8270.17
361.234
8328.52
202.843
8268.13
120.371
8080.03
6611.19
710.819
16720.7
460.027
14157.2
439.685
10824.8
689.905
8265.74
847.665
8358.52
931.544
8241.58
1010.06
8344.88
1033.6
8317.69
1043.84
8321.87
1028.17
8325.47
994.275
8336
941.834
8337.82
877.545
8359.95
793.653
8359.59
709.452
8392.92
596.603
8383.06
497.609
8427.53
346.855
8418.9
258.194
8168.7
6869.38
886.251
15834.3
1242.76
13800.7
1364.58
10702.9
1436.48
8193.75
1441.46
8353.42
1399.45
8283.5
1361.98
8382.23
1306.77
8372.82
1247.52
8381.01
1181.17
8391.75
1111.58
8405.5
1036.03
8413.32
963.372
8432.53
877.628
8445.29
810.911
8459.58
711.2
8482.73
653.954
8484.75
516.686
8556.14
454.953
8230.41
7324.34
835.557
14999.4
1444.23
13192.7
1690.96
10457
1668.33
8217.38
1579.92
8442.73
1494.92
8369.45
1413.59
8464.42
1333.98
8453.33
1253.55
8462.23
1174.02
8472.12
1097.21
8483.02
1019.33
8491.95
950.994
8501.48
871.297
8525.63
820.943
8510.48
732.707
8571.47
706.968
8510.85
585.235
8678.21
583.63
8232.37
7907.97
798.094
14201.4
1397.76
12593.2
1663.48
10191.5
1614.32
8266.79
1505.66
8551.59
1420.32
8455.05
1336.54
8548.41
1259.76
8530.36
1182.96
8539.24
1109.1
8546.22
1039.46
8552.85
969.818
8561.83
911.83
8559.66
842.322
8595.34
805.401
8547.6
729.626
8647.42
719.021
8521.61
629.641
8767.74
618.171
8244
8526.15
775.478
13426.6
1311.85
12057.6
1533.6
9970.66
1477.4
8324.01
1386.19
8643.72
1316.51
8525.72
1245.93
8619.89
1181.43
8595.81
1115.9
8605.61
1052.67
8610.35
992.831
8613.46
932.404
8623.06
883.448
8609.31
821.955
8657.54
794.098
8576.08
724.933
8717.15
724.789
8522.19
669.037
8823.89
648.392
8265.03
9174.54
745.44
12681.7
1225.62
11578
1404.01
9792.92
1341.59
8387.15
1266.2
8719.77
1204.09
8588.55
1139.17
8685.46
1076.52
8659.16
1011.04
8671.71
946.372
8675.68
884.234
8676.18
821.269
8686.65
770.263
8660.85
709.186
8719.16
677.605
8608.16
624.957
8770.24
596.329
8551.15
605.29
8815.2
425.619
8444.97
9600.17
722.242
11960.1
1139.72
11161.3
1300.04
9633.41
1256.5
8431.63
1199.28
8777.81
1143.79
8644.95
1071.44
8758.62
994.897
8736.59
907.867
8759.51
816.319
8768.07
724.211
8768.99
632.612
8779.04
554.916
8739.17
478.773
8796
435.657
8651.84
400.419
8806.02
390.006
8561.82
439.053
8766.35
164.219
8720.02
9764.39
758.756
11201.6
1132.81
10787.6
1324.27
9442.37
1325.37
8430.94
1282.65
8820.99
1192.24
8735.79
1058.64
8892.68
878.808
8916.83
670.33
8968.43
451.026
8987.77
233.5
8986.93
33.444
8979.46
-138.382
8911.42
-265.658
8923.62
-333.738
8720.35
-346.811
8819.4
-235.65
8450.97
-129.98
8660.91
32.5455
8557.73
9796.94
769.504
10432.3
1308.64
10248.7
1429.07
9322.19
1159.41
8700.81
810.479
9170.16
292.782
9253.67
-302.036
9487.72
-910.713
9525.68
-1489.77
9547.7
-2018.47
9516.63
-2472.27
9440.93
-2821.78
9329.14
-3058.27
9148.11
-3132.23
8997.76
-3060.03
8648.36
-2794.18
8553.73
-2292.34
7949.32
-1631.76
8000.51
-588.576
7514.74
9208.36
-98.3378
10530.7
-283.443
10433.8
-1090.38
10129.2
-2360.91
9971.34
-3674.69
10484
-5174.39
10753.4
-6510.35
10823.8
-7658.7
10674.1
-8701.38
10590.5
-9572.91
10388.2
-10241.1
10109.2
-10670.4
9758.47
-10845.6
9323.5
-10691.4
8843.64
-10218
8175.09
-9223.01
7558.85
-7670.28
6396.78
-5528.59
5859.03
-3095.19
5081.58
6113.18
-3322.44
-5961.59
-8503.11
-10825.4
-12568.2
-14105.8
-17861.1
-19680.2
-21018.9
-21788.7
-22064.9
-21882.4
-21262.2
-20147.9
-18526.2
-16328.1
-13594.1
-10154.8
-5763.61
)
;

boundaryField
{
    outletWall
    {
        type            calculated;
        value           nonuniform List<scalar> 
60
(
310479
329887
110816
204205
160675
100898
78033.4
60144.9
46517.4
36567.3
29189.3
23587.3
19227.9
15751.3
12912.5
10539.6
8503.23
6684.56
5015.12
2815.15
1065.94
1666.25
2033.88
2410.15
2777.15
3150.78
3547.83
3986.71
4473.09
4925.2
4928.1
4480.39
3997.92
3562.09
3166.91
2793.8
2425.88
2047.29
1675.92
1070.47
-295799
-434024
-290652
-270020
-119958
-51231.6
6951.4
19100.2
23854
23981.1
22267.7
19816.2
17187.3
14652.3
12322
10222.7
8333.48
6594.22
4970.14
2797.95
)
;
    }
    fineWalls
    {
        type            calculated;
        value           uniform 0;
    }
    fineFrontAndBack
    {
        type            calculated;
        value           nonuniform List<scalar> 
960
(
-3.78532e-14
5.96025e-12
-8.66208e-12
-4.9744e-12
-5.49666e-12
-1.2829e-12
7.56578e-12
-4.86051e-11
7.36025e-10
1.43205e-10
1.08635e-10
-1.35409e-09
-2.34687e-10
-6.49895e-11
-2.7368e-09
-4.06835e-10
-1.78783e-10
-4.96359e-10
-6.22631e-11
-3.93517e-11
-5.72929e-12
-1.55483e-11
-2.26591e-11
-2.15548e-11
-1.72687e-11
-2.72176e-11
-2.70614e-10
-3.25381e-11
-3.66655e-11
-4.19218e-11
-4.28285e-11
-4.1558e-11
-3.34412e-11
-2.49468e-10
-9.11723e-09
-9.42464e-08
5.55434e-06
-1.95004e-06
-1.38652e-06
-3.34632e-07
-1.50494e-06
-3.10942e-08
-6.52052e-09
-2.07983e-09
-7.64522e-09
-4.43576e-10
-2.7831e-09
-1.08318e-08
-1.983e-07
-4.58974e-08
-3.01934e-08
-5.97349e-08
3.84094e-10
6.49587e-10
2.03845e-10
-1.52479e-10
2.36941e-10
1.77826e-10
1.13371e-10
-3.01627e-08
-9.5745e-09
-3.65581e-07
3.40286e-05
-1.41846e-05
-1.00694e-05
-2.4583e-06
-5.18812e-07
-1.05495e-07
-2.12291e-08
-4.24376e-09
-8.25476e-10
-1.38859e-10
2.03145e-12
3.22439e-10
3.19513e-11
2.12003e-11
2.46906e-11
2.80311e-11
2.82422e-11
8.24882e-12
-9.52363e-12
-2.44861e-11
-1.85999e-10
-3.3964e-11
-3.66991e-11
1.73705e-09
2.49495e-10
4.49405e-11
1.07048e-09
1.20969e-10
-7.1352e-11
1.8352e-09
3.98417e-10
1.77934e-10
5.13597e-11
8.3426e-11
3.61945e-12
1.98774e-11
-6.47891e-11
-2.54779e-11
6.23169e-16
1.87594e-15
2.6357e-15
-2.35043e-16
-7.73328e-15
-1.00669e-14
2.97535e-15
1.58791e-14
5.34496e-15
-2.08021e-14
-3.59569e-14
-2.69981e-14
-5.143e-14
-1.22836e-13
-1.74041e-13
-2.33418e-13
-1.33434e-12
2.17797e-13
1.7113e-11
1.99573e-15
8.61857e-15
1.92983e-14
2.47125e-14
1.10657e-14
-5.35487e-15
2.25422e-14
9.08981e-14
1.31422e-13
1.18012e-13
9.00195e-14
1.04484e-13
3.00633e-14
-2.54424e-13
-6.6159e-13
-1.23712e-12
-8.0762e-12
-3.03231e-11
1.07548e-10
3.33867e-15
2.36735e-14
6.77999e-14
1.17393e-13
1.1499e-13
5.57028e-14
7.53486e-14
2.84515e-13
5.57987e-13
7.03852e-13
6.94985e-13
6.76123e-13
4.77366e-13
-3.65464e-13
-1.95194e-12
-3.88212e-12
-2.62708e-11
-1.48327e-10
3.18488e-10
-1.30071e-15
4.37684e-14
1.69583e-13
3.4864e-13
4.07661e-13
2.33532e-13
1.50283e-13
6.47293e-13
1.55167e-12
2.19388e-12
2.29428e-12
2.17191e-12
1.63934e-12
-7.45261e-13
-5.9063e-12
-1.24962e-11
-3.41485e-11
-1.06628e-10
2.16375e-10
-3.62007e-14
1.03878e-14
2.43528e-13
6.5122e-13
8.65056e-13
4.81987e-13
3.7564e-14
7.87351e-13
2.69105e-12
4.25422e-12
4.74192e-12
4.61464e-12
3.39892e-12
-2.33775e-12
-1.54264e-11
-3.4025e-11
-7.28547e-11
-2.12091e-10
1.10185e-10
-1.70289e-13
-3.1895e-13
-1.99134e-13
3.24754e-13
8.08379e-13
2.72677e-13
-1.11336e-12
-1.27879e-12
7.89213e-13
3.23337e-12
4.99938e-12
5.98364e-12
4.2222e-12
-6.70953e-12
-3.36435e-11
-7.93589e-11
-1.3589e-10
-3.15049e-10
-7.60832e-10
-5.57896e-13
-1.58886e-12
-2.5373e-12
-2.70591e-12
-1.91899e-12
-2.13197e-12
-5.67722e-12
-1.0886e-11
-1.29461e-11
-1.11342e-11
-5.85279e-12
5.54173e-13
1.86443e-12
-1.29049e-11
-6.17049e-11
-1.90978e-10
-5.68667e-10
-2.11519e-09
-6.9288e-09
-1.45092e-12
-4.85407e-12
-8.92179e-12
-1.1706e-11
-1.1239e-11
-1.09293e-11
-1.8856e-11
-3.6374e-11
-5.19875e-11
-5.53632e-11
-4.39113e-11
-2.13959e-11
-4.91604e-12
-9.11217e-12
-4.982e-11
-2.43612e-10
-1.30712e-09
-7.53599e-09
-2.97096e-08
-2.93711e-12
-1.02474e-11
-1.93029e-11
-2.6993e-11
-2.99692e-11
-3.28829e-11
-4.68128e-11
-7.96239e-11
-1.20535e-10
-1.40464e-10
-1.31599e-10
-8.46136e-11
-1.97698e-11
2.67417e-11
2.8502e-11
-5.98106e-11
-4.60552e-10
-2.82476e-09
-8.04037e-09
-3.59689e-12
-1.20928e-11
-2.23817e-11
-3.31228e-11
-4.44196e-11
-5.79108e-11
-7.34381e-11
-1.11134e-10
-1.77126e-10
-2.37747e-10
-2.73876e-10
-2.30706e-10
-2.07786e-10
-2.94251e-10
-2.89695e-10
1.6289e-10
-1.1994e-10
-6.64864e-09
-2.64032e-08
3.55612e-12
1.15695e-11
2.06415e-11
2.88828e-11
3.34668e-11
2.65386e-11
-3.15678e-12
-3.15675e-11
-3.68913e-11
-4.90835e-11
-5.73882e-11
-5.77847e-11
-7.20662e-11
-1.45894e-10
-2.17237e-10
5.23299e-11
-1.95155e-11
-2.37625e-10
-2.44871e-08
2.92423e-12
1.00802e-11
1.87061e-11
2.52788e-11
2.46681e-11
1.63153e-11
4.63978e-12
-2.08798e-13
6.1727e-12
8.36146e-12
1.11042e-11
9.91e-12
2.88313e-12
-1.06265e-11
-3.2161e-11
-3.61248e-12
-1.73305e-10
-2.26063e-10
-4.5647e-09
1.44452e-12
4.82241e-12
8.82101e-12
1.12656e-11
9.22749e-12
3.95794e-12
1.53972e-12
5.01026e-12
9.5325e-12
1.18367e-11
1.25005e-11
1.05045e-11
6.66817e-12
6.23761e-12
8.59874e-12
-6.25251e-12
-9.3005e-11
3.27934e-10
-9.85941e-09
5.55668e-13
1.59116e-12
2.55513e-12
2.65876e-12
1.32073e-12
-1.72773e-13
5.08434e-13
3.22773e-12
5.12273e-12
6.18823e-12
5.79571e-12
3.84372e-12
1.87134e-12
7.38938e-12
2.89716e-11
6.45937e-11
1.14285e-10
2.41305e-10
7.57755e-10
1.70186e-13
3.24467e-13
2.18295e-13
-3.1917e-13
-9.76157e-13
-8.75711e-13
2.34208e-13
1.33166e-12
1.77722e-12
2.08864e-12
1.7319e-12
7.10649e-13
3.42827e-13
7.26854e-12
3.21225e-11
7.56428e-11
9.11507e-11
4.83662e-11
-7.0209e-11
3.65048e-14
-7.55334e-15
-2.36838e-13
-6.54125e-13
-9.24092e-13
-6.04797e-13
8.1306e-14
3.97401e-13
3.59126e-13
3.6427e-13
1.86341e-13
-1.92136e-13
-1.24546e-13
3.89869e-12
1.83014e-11
4.23019e-11
3.19928e-11
2.96308e-11
1.93824e-11
1.47725e-15
-4.28887e-14
-1.68661e-13
-3.54176e-13
-4.31063e-13
-2.46289e-13
2.41681e-14
7.30385e-14
-1.63807e-14
-7.30211e-14
-1.42962e-13
-2.47156e-13
-1.81252e-13
1.36779e-12
6.55055e-12
1.12412e-11
1.20194e-11
2.56775e-12
-4.31353e-12
-3.27641e-15
-2.3508e-14
-6.81025e-14
-1.20584e-13
-1.22673e-13
-4.98589e-14
1.34108e-14
-4.62741e-15
-4.90033e-14
-8.65403e-14
-1.08653e-13
-1.28291e-13
-1.10052e-13
3.01581e-13
1.25969e-12
1.63116e-12
3.16478e-12
2.61455e-12
-6.06896e-12
-1.97585e-15
-8.60657e-15
-1.95375e-14
-2.58681e-14
-1.27669e-14
1.05683e-14
1.01942e-14
-1.10653e-14
-2.38687e-14
-3.82436e-14
-4.27603e-14
-4.40514e-14
-4.6529e-14
1.04493e-15
4.30561e-14
5.10179e-14
6.14468e-13
1.45534e-13
1.79354e-12
-6.16023e-16
-1.87649e-15
-2.70655e-15
-1.82045e-18
7.67397e-15
1.21469e-14
4.54138e-15
-4.71012e-15
-5.80676e-15
-8.09722e-15
-7.61226e-15
-6.96488e-15
-1.08562e-14
-3.147e-14
-7.46032e-14
-8.20054e-14
1.5882e-13
3.60156e-13
-1.02895e-12
3.78532e-14
-5.96025e-12
8.66208e-12
4.9744e-12
5.49666e-12
1.2829e-12
-7.56578e-12
4.86051e-11
-7.36025e-10
-1.43205e-10
-1.08635e-10
1.35409e-09
2.34687e-10
6.49895e-11
2.7368e-09
4.06835e-10
1.78783e-10
4.96359e-10
6.22631e-11
3.93517e-11
5.72929e-12
1.55483e-11
2.26591e-11
2.15548e-11
1.72687e-11
2.72176e-11
2.70614e-10
3.25381e-11
3.66655e-11
4.19218e-11
4.28285e-11
4.1558e-11
3.34412e-11
2.49468e-10
9.11723e-09
9.42464e-08
-5.55434e-06
1.95004e-06
1.38652e-06
3.34632e-07
1.50494e-06
3.10942e-08
6.52052e-09
2.07983e-09
7.64522e-09
4.43576e-10
2.7831e-09
1.08318e-08
1.983e-07
4.58974e-08
3.01934e-08
5.97349e-08
-3.84094e-10
-6.49587e-10
-2.03845e-10
1.52479e-10
-2.36941e-10
-1.77826e-10
-1.13371e-10
3.01627e-08
9.5745e-09
3.65581e-07
-3.40286e-05
1.41846e-05
1.00694e-05
2.4583e-06
5.18812e-07
1.05495e-07
2.12291e-08
4.24376e-09
8.25476e-10
1.38859e-10
-2.03145e-12
-3.22439e-10
-3.19513e-11
-2.12003e-11
-2.46906e-11
-2.80311e-11
-2.82422e-11
-8.24882e-12
9.52363e-12
2.44861e-11
1.85999e-10
3.3964e-11
3.66991e-11
-1.73705e-09
-2.49495e-10
-4.49405e-11
-1.07048e-09
-1.20969e-10
7.1352e-11
-1.8352e-09
-3.98417e-10
-1.77934e-10
-5.13597e-11
-8.3426e-11
-3.61945e-12
-1.98774e-11
6.47891e-11
2.54779e-11
-6.23169e-16
-1.87594e-15
-2.6357e-15
2.35043e-16
7.73328e-15
1.00669e-14
-2.97535e-15
-1.58791e-14
-5.34496e-15
2.08021e-14
3.59569e-14
2.69981e-14
5.143e-14
1.22836e-13
1.74041e-13
2.33418e-13
1.33434e-12
-2.17797e-13
-1.7113e-11
-1.99573e-15
-8.61857e-15
-1.92983e-14
-2.47125e-14
-1.10657e-14
5.35487e-15
-2.25422e-14
-9.08981e-14
-1.31422e-13
-1.18012e-13
-9.00195e-14
-1.04484e-13
-3.00633e-14
2.54424e-13
6.6159e-13
1.23712e-12
8.0762e-12
3.03231e-11
-1.07548e-10
-3.33867e-15
-2.36735e-14
-6.77999e-14
-1.17393e-13
-1.1499e-13
-5.57028e-14
-7.53486e-14
-2.84515e-13
-5.57987e-13
-7.03852e-13
-6.94985e-13
-6.76123e-13
-4.77366e-13
3.65464e-13
1.95194e-12
3.88212e-12
2.62708e-11
1.48327e-10
-3.18488e-10
1.30071e-15
-4.37684e-14
-1.69583e-13
-3.4864e-13
-4.07661e-13
-2.33532e-13
-1.50283e-13
-6.47293e-13
-1.55167e-12
-2.19388e-12
-2.29428e-12
-2.17191e-12
-1.63934e-12
7.45261e-13
5.9063e-12
1.24962e-11
3.41485e-11
1.06628e-10
-2.16375e-10
3.62007e-14
-1.03878e-14
-2.43528e-13
-6.5122e-13
-8.65056e-13
-4.81987e-13
-3.7564e-14
-7.87351e-13
-2.69105e-12
-4.25422e-12
-4.74192e-12
-4.61464e-12
-3.39892e-12
2.33775e-12
1.54264e-11
3.4025e-11
7.28547e-11
2.12091e-10
-1.10185e-10
1.70289e-13
3.1895e-13
1.99134e-13
-3.24754e-13
-8.08379e-13
-2.72677e-13
1.11336e-12
1.27879e-12
-7.89213e-13
-3.23337e-12
-4.99938e-12
-5.98364e-12
-4.2222e-12
6.70953e-12
3.36435e-11
7.93589e-11
1.3589e-10
3.15049e-10
7.60832e-10
5.57896e-13
1.58886e-12
2.5373e-12
2.70591e-12
1.91899e-12
2.13197e-12
5.67722e-12
1.0886e-11
1.29461e-11
1.11342e-11
5.85279e-12
-5.54173e-13
-1.86443e-12
1.29049e-11
6.17049e-11