/*--------------------------------*- C++ -*----------------------------------*\
| =========                 |                                                 |
| \\      /  F ield         | OpenFOAM: The Open Source CFD Toolbox           |
|  \\    /   O peration     | Version:  4.1                                   |
|   \\  /    A nd           | Web:      www.OpenFOAM.org                      |
|    \\/     M anipulation  |                                                 |
\*---------------------------------------------------------------------------*/
FoamFile
{
    version     2.0;
    format      ascii;
    class       volVectorField;
    location    "1";
    object      U;
}
// * * * * * * * * * * * * * * * * * * * * * * * * * * * * * * * * * * * * * //

dimensions      [0 1 -1 0 0 0 0];

internalField   nonuniform List<vector> 
1280
(
(-2.73555e-17 92.989 1.6348)
(1.013e-15 133.862 5.26823)
(-7.26225e-15 101.897 0.99595)
(-3.59487e-15 92.7537 -0.881543)
(-9.3421e-16 141.592 7.50528)
(-9.27118e-16 97.1981 0.934846)
(5.46759e-15 110.323 -1.0213)
(-4.04159e-14 96.5808 2.14158)
(1.40098e-13 137.412 1.80651)
(1.0349e-13 109.8 2.35597)
(8.47513e-14 102.059 2.97099)
(-2.58335e-13 153.788 5.66095)
(-1.73121e-13 118.598 3.82194)
(-4.46192e-14 110.448 1.20134)
(-5.29199e-13 171.018 22.5583)
(-2.94009e-13 125.734 11.4175)
(-1.29201e-13 117.019 1.65198)
(-8.43611e-14 209.771 33.0232)
(-4.49959e-14 110.676 7.73199)
(-2.84385e-14 168.835 -29.0671)
(-2.35048e-14 136.366 2.42081)
(-6.37878e-14 136.886 27.7794)
(-9.29604e-14 137.564 69.7955)
(-8.84301e-14 130.128 122.387)
(-7.08459e-14 125.98 170.932)
(-1.11662e-13 101.464 179.876)
(-5.70465e-14 300.721 161.795)
(-1.3349e-13 174.785 149.532)
(-1.50423e-13 156.505 129.631)
(-1.71987e-13 164.52 122.712)
(-1.75707e-13 166.041 123.451)
(-1.70494e-13 166.221 126.967)
(-1.37194e-13 166.849 131.923)
(-1.02346e-12 166.693 138.312)
(-3.7404e-11 170.898 141.339)
(-3.86652e-10 173.297 140.983)
(2.27871e-08 173.336 141.521)
(-8.00015e-09 166.406 149.067)
(-5.68827e-09 173.621 161.73)
(-1.37285e-09 160.036 189.483)
(-2.61957e-10 615.278 17.7339)
(-2.49752e-11 251.161 33.9445)
(-5.23737e-12 212.134 9.94361)
(-1.70522e-12 300.617 82.8368)
(-1.62467e-12 -107.534 296.913)
(-3.56286e-13 188.131 -209.61)
(-2.23542e-12 296.541 -962.319)
(-8.70022e-12 293.661 -1633.01)
(-3.45169e-11 1089.03 -1379.24)
(-3.59278e-11 362.778 -691.522)
(-2.27492e-11 275.757 -260.027)
(-1.03977e-11 1156.63 102.557)
(3.08509e-13 483.053 222.194)
(5.21757e-13 330.679 95.0568)
(1.63731e-13 432.441 10.855)
(-2.65411e-14 631.761 170.513)
(2.12529e-13 380.194 46.3937)
(1.42832e-13 403.987 12.1331)
(9.1061e-14 363.562 24.6325)
(-5.1626e-12 455.008 291.235)
(-3.928e-11 252.054 150.67)
(-1.49982e-09 229.435 101.767)
(1.39605e-07 240.781 91.8754)
(-5.81934e-08 238.326 90.5062)
(-4.13104e-08 239.499 95.9159)
(-1.00853e-08 237.783 105.186)
(-2.12846e-09 238.488 119.561)
(-4.32801e-10 238.807 132.007)
(-8.70936e-11 238.218 142.003)
(-1.74103e-11 238.461 151.104)
(-3.38657e-12 234.385 159.088)
(-5.69679e-13 248.474 168.388)
(8.33416e-15 211.759 167.843)
(6.79714e-14 407.033 349.706)
(1.31082e-13 207.652 229.506)
(8.69754e-14 180.436 209.761)
(1.01295e-13 191.876 195.875)
(1.14999e-13 186.43 175.617)
(1.15865e-13 196.384 167.095)
(3.38413e-14 177.857 168.057)
(-6.88248e-15 249.934 2.43362)
(-1.76955e-14 147.562 -10.2263)
(-3.16123e-14 213.791 6.82229)
(-2.45449e-14 145.455 -8.78238)
(-2.65215e-14 142.765 5.62116)
(2.96071e-13 202.187 20.2839)
(1.80303e-13 136.671 2.17592)
(3.47981e-14 123.651 2.70643)
(1.78091e-13 176.753 21.0315)
(8.85096e-14 125.418 2.08629)
(-5.15643e-14 111.528 -0.952867)
(3.14099e-13 165.724 16.6933)
(2.89729e-13 105.864 -0.299621)
(1.28588e-13 118.143 -3.77618)
(3.71163e-14 103.609 4.83998)
(1.41791e-14 139.147 15.6849)
(2.61568e-15 105.903 5.05911)
(1.41627e-14 93.7065 5.26327)
(-4.57108e-15 136.951 5.0569)
(-1.84122e-14 101.185 0.201487)
(6.9241e-20 0.930516 0.891384)
(2.08437e-19 1.65628 0.955717)
(2.92855e-19 2.20501 1.08244)
(-2.61159e-20 2.80134 1.26559)
(-8.59253e-19 3.46766 1.50979)
(-1.11855e-18 4.24235 1.82244)
(3.30595e-19 5.16717 2.21798)
(1.76435e-18 6.29801 2.71701)
(5.93884e-19 7.7157 3.35008)
(-2.31135e-18 9.54112 4.16024)
(-3.99521e-18 11.959 5.20571)
(-2.99979e-18 15.2529 6.54686)
(-5.71444e-18 19.8094 8.15704)
(-1.36484e-17 25.8591 9.84173)
(-1.93379e-17 34.0681 11.1058)
(-2.59353e-17 52.9535 1.07112)
(-1.4826e-16 68.1334 23.7371)
(2.41997e-17 39.6313 28.1699)
(1.90144e-15 113.011 5.11786)
(2.21748e-19 0.910683 1.39542)
(9.57618e-19 1.5938 1.50323)
(2.14426e-18 2.09764 1.70472)
(2.74584e-18 2.65367 1.99507)
(1.22952e-18 3.27476 2.37764)
(-5.94986e-19 3.99707 2.86632)
(2.50468e-18 4.85734 3.48495)
(1.00998e-17 5.90562 4.27013)
(1.46024e-17 7.21451 5.27759)
(1.31124e-17 8.89485 6.59082)
(1.00022e-17 11.1243 8.33582)
(1.16093e-17 14.1993 10.6783)
(3.34036e-18 18.6018 13.6928)
(-2.82693e-17 25.1167 17.2424)
(-7.351e-17 35.5258 19.7676)
(-1.37458e-16 50.7943 7.32676)
(-8.97355e-16 56.8896 41.2182)
(-3.36923e-15 44.035 55.865)
(1.19497e-14 125.518 32.1723)
(3.70963e-19 0.882933 1.70571)
(2.63038e-18 1.53058 1.85399)
(7.53332e-18 1.99655 2.10676)
(1.30437e-17 2.51828 2.46892)
(1.27766e-17 3.09982 2.94135)
(6.1892e-18 3.77491 3.54321)
(8.37207e-18 4.57475 4.3047)
(3.16128e-17 5.54212 5.27418)
(6.19985e-17 6.73827 6.52653)
(7.82058e-17 8.25665 8.17927)
(7.72206e-17 10.2505 10.4267)
(7.51247e-17 12.9991 13.5731)
(5.30406e-17 17.0961 17.9252)
(-4.06071e-17 23.9388 23.4926)
(-2.16882e-16 35.4937 27.6715)
(-4.31347e-16 47.6548 21.2383)
(-2.91898e-15 50.1246 60.2168)
(-1.64808e-14 37.4732 78.9875)
(3.53875e-14 136.209 50.639)
(-1.44523e-19 0.842722 2.02223)
(4.86315e-18 1.43998 2.23271)
(1.88425e-17 1.85379 2.54911)
(3.87377e-17 2.32793 2.99702)
(4.52957e-17 2.85484 3.57337)
(2.5948e-17 3.46483 4.30378)
(1.66982e-17 4.1815 5.22454)
(7.19215e-17 5.03737 6.39524)
(1.72408e-16 6.07719 7.90866)
(2.43764e-16 7.36524 9.91617)
(2.5492e-16 9.00037 12.6917)
(2.41324e-16 11.1994 16.7577)
(1.82149e-16 14.7256 22.9131)
(-8.28067e-17 21.644 31.6651)
(-6.56256e-16 33.2996 40.164)
(-1.38847e-15 41.9573 44.255)
(-3.79428e-15 38.2269 87.4121)
(-1.18475e-14 35.8408 116.601)
(2.40417e-14 156.846 60.4833)
(-4.0223e-18 0.786433 2.3306)
(1.1542e-18 1.32633 2.61871)
(2.70587e-17 1.68512 3.00515)
(7.23578e-17 2.10693 3.54615)
(9.61173e-17 2.57332 4.23233)
(5.35541e-17 3.11046 5.09643)
(4.17377e-18 3.73341 6.17974)
(8.74835e-17 4.46259 7.55112)
(2.99005e-16 5.3223 9.31765)
(4.72691e-16 6.33421 11.6586)
(5.2688e-16 7.49488 14.93)
(5.12737e-16 8.85596 19.9873)
(3.77658e-16 11.2413 28.5655)
(-2.59749e-16 17.0741 42.6193)
(-1.71404e-15 27.2127 60.8321)
(-3.78056e-15 33.7408 79.188)
(-8.09497e-15 25.2459 121.824)
(-2.35657e-14 32.3431 164.683)
(1.22428e-14 188.288 76.251)
(-1.89209e-17 0.709969 2.6439)
(-3.54389e-17 1.18102 3.02809)
(-2.2126e-17 1.4788 3.49322)
(3.60838e-17 1.8402 4.13838)
(8.98199e-17 2.23666 4.94483)
(3.02975e-17 2.68942 5.95328)
(-1.23707e-16 3.20428 7.20859)
(-1.42088e-16 3.78811 8.78628)
(8.76903e-17 4.44163 10.803)
(3.59263e-16 5.12892 13.4584)
(5.55486e-16 5.66926 17.1911)
(6.64849e-16 5.73782 23.3406)
(4.69133e-16 5.97423 35.0978)
(-7.45503e-16 8.69111 56.548)
(-3.73817e-15 15.0813 87.9775)
(-8.81765e-15 20.8803 122)
(-1.50989e-14 14.9031 170.028)
(-3.50055e-14 38.3302 231.968)
(-8.45369e-14 223.067 139.734)
(-6.19885e-17 0.609339 2.97627)
(-1.7654e-16 1.00049 3.47873)
(-2.81922e-16 1.234 4.03323)
(-3.00656e-16 1.52796 4.79725)
(-2.13221e-16 1.84654 5.73916)
(-2.36885e-16 2.20527 6.9084)
(-6.30802e-16 2.60075 8.35175)
(-1.20956e-15 3.02585 10.1478)
(-1.43846e-15 3.4559 12.4189)
(-1.23713e-15 3.77849 15.3853)
(-6.50309e-16 3.51211 19.5648)
(6.15748e-17 1.67837 26.7349)
(2.07159e-16 -1.61383 40.2489)
(-1.43388e-15 -4.20239 65.0042)
(-6.8561e-15 -2.86091 102.435)
(-2.12198e-14 3.36134 141.566)
(-6.31853e-14 -5.30292 202.892)
(-2.35022e-13 6.39094 321.326)
(-7.69866e-13 303.567 343.155)
(-1.61213e-16 0.479578 3.34308)
(-5.39341e-16 0.777278 3.98855)
(-9.9131e-16 0.9436 4.64516)
(-1.30067e-15 1.16153 5.54615)
(-1.24878e-15 1.39303 6.64322)
(-1.21436e-15 1.64698 7.99536)
(-2.09511e-15 1.91178 9.64954)
(-4.04156e-15 2.16607 11.6841)
(-5.77639e-15 2.35486 14.2239)
(-6.15147e-15 2.27145 17.5071)
(-4.87903e-15 1.14555 22.0196)
(-2.37732e-15 -2.42811 28.4402)
(-5.46227e-16 -8.52841 37.017)
(-1.01246e-15 -15.3229 51.1604)
(-5.53556e-15 -17.1894 70.3071)
(-2.7068e-14 -7.93679 73.1952)
(-1.45235e-13 -34.1879 121.853)
(-8.37333e-13 -39.5851 363.674)
(-3.30106e-12 316.926 455.536)
(-3.26346e-16 0.31334 3.74881)
(-1.1386e-15 0.501306 4.55639)
(-2.14476e-15 0.59812 5.32605)
(-2.99922e-15 0.729569 6.37911)
(-3.32992e-15 0.863218 7.6483)
(-3.65365e-15 1.00011 9.20233)
(-5.20143e-15 1.12167 11.0876)
(-8.8471e-15 1.19104 13.3802)
(-1.33928e-14 1.11669 16.1936)
(-1.56071e-14 0.637057 19.7234)
(-1.46221e-14 -0.904664 24.1288)
(-9.40152e-15 -4.45545 28.9301)
(-2.19664e-15 -10.5259 33.4476)
(2.9713e-15 -18.29 39.5897)
(3.16689e-15 -25.05 52.8065)
(-6.64562e-15 -34.9812 80.4573)
(-5.11725e-14 -91.634 229.628)
(-3.13862e-13 -98.1464 472.409)
(-8.93374e-13 224.744 149.305)
(-3.99654e-16 0.114796 4.12516)
(-1.34364e-15 0.177868 5.08052)
(-2.48686e-15 0.205139 5.95135)
(-3.68031e-15 0.24087 7.13881)
(-4.93551e-15 0.267485 8.55881)
(-6.43453e-15 0.27684 10.2867)
(-9.14771e-15 0.245523 12.3666)
(-1.23483e-14 0.127216 14.8683)
(-1.96806e-14 -0.180267 17.8762)
(-2.64163e-14 -0.913143 21.4648)
(-3.04306e-14 -2.56711 25.4247)
(-2.87122e-14 -5.95932 28.9048)
(-2.30874e-14 -11.9254 30.6535)
(-3.26945e-14 -21.1266 31.4135)
(-3.61811e-14 -38.0058 39.0682)
(1.80989e-14 -78.8709 49.339)
(-1.33266e-14 -162.173 188.983)
(-7.38738e-13 -83.1139 484.502)
(-2.93369e-12 314.737 -4.1134)
(3.95124e-16 -0.121279 4.12262)
(1.2855e-15 -0.195967 5.07594)
(2.2935e-15 -0.241718 5.94302)
(3.2092e-15 -0.310724 7.12358)
(3.71853e-15 -0.399515 8.53093)
(2.94874e-15 -0.525653 10.2356)
(6.14695e-16 -0.715148 12.2729)
(-3.5075e-15 -1.01748 14.6953)
(-4.09903e-15 -1.52137 17.5538)
(-5.45372e-15 -2.37698 20.855)
(-6.37646e-15 -3.84279 24.3348)
(-6.42052e-15 -6.40417 27.0253)
(-8.00736e-15 -10.9582 26.9053)
(-1.62104e-14 -19.5553 22.289)
(-2.41375e-14 -38.5375 16.7349)
(5.81443e-15 -84.9562 -35.0158)
(-2.16839e-15 -190.73 15.6548)
(-2.64028e-14 -132.103 -436.433)
(-2.72079e-12 805.782 408.673)
(3.24915e-16 -0.3189 3.74238)
(1.12002e-15 -0.517036 4.54556)
(2.07846e-15 -0.630194 5.30644)
(2.80876e-15 -0.791073 6.34312)
(2.7409e-15 -0.979867 7.58169)
(1.81281e-15 -1.22067 9.0786)
(5.15531e-16 -1.53924 10.8563)
(-2.31998e-17 -1.98474 12.9423)
(6.85855e-16 -2.63815 15.3492)
(9.29052e-16 -3.60981 18.052)
(1.2338e-15 -5.00286 20.8055)
(1.10111e-15 -6.92026 22.5816)
(3.20347e-16 -9.87196 20.4671)
(-1.18073e-15 -16.0555 10.8762)
(-3.57344e-15 -29.1748 -5.70344)
(-4.01387e-16 -61.306 -67.7803)
(-1.92561e-14 -98.259 -47.518)
(-2.51181e-14 -125.685 -671.975)
(-5.07189e-13 484.189 -58.6825)
(1.60502e-16 -0.483968 3.33318)
(5.35823e-16 -0.789938 3.97253)
(9.80112e-16 -0.969672 4.61617)
(1.25174e-15 -1.21176 5.49281)
(1.02528e-15 -1.48845 6.54393)
(4.39771e-16 -1.82732 7.8098)
(1.7108e-16 -2.25189 9.30079)
(5.56696e-16 -2.80646 11.0229)
(1.05917e-15 -3.5606 12.9513)
(1.31518e-15 -4.57311 15.0063)
(1.38894e-15 -5.68216 16.9043)
(1.16717e-15 -6.17916 17.535)
(7.40908e-16 -5.72675 13.3854)
(6.93068e-16 -7.44067 0.395941)
(9.55416e-16 -15.6322 -25.2244)
(-6.94723e-16 -38.3377 -66.4764)
(-1.03339e-14 -10.3139 -25.7043)
(3.64371e-14 -110.322 -504.362)
(-1.09549e-12 570.623 -164.719)
(6.17408e-17 -0.61219 2.96363)
(1.76796e-16 -1.009 3.4589)
(2.83904e-16 -1.25184 3.99744)
(2.95417e-16 -1.56262 4.73144)
(1.46748e-16 -1.91262 5.61647)
(-1.9197e-17 -2.33014 6.67877)
(5.64926e-17 -2.83521 7.92022)
(3.58636e-16 -3.46242 9.33294)
(5.69192e-16 -4.25903 10.8682)
(6.87581e-16 -5.23636 12.4034)
(6.43967e-16 -6.12747 13.7118)
(4.2708e-16 -5.99797 14.5857)
(2.07927e-16 -4.18348 15.6824)
(8.21042e-16 -3.47187 19.265)
(3.21907e-15 -9.97452 22.6408)
(7.17708e-15 -25.7567 15.1918)
(1.26983e-14 39.4512 57.9322)
(2.68116e-14 -37.0933 -337.536)
(8.4195e-14 357.152 -73.4528)
(1.89096e-17 -0.711084 2.62957)
(3.60519e-17 -1.1848 3.00614)
(2.4255e-17 -1.48715 3.45382)
(-3.54633e-17 -1.85683 4.06606)
(-1.08462e-16 -2.26871 4.8101)
(-9.73012e-17 -2.75005 5.7013)
(2.60231e-17 -3.3171 6.73613)
(1.47963e-16 -3.99341 7.89905)
(1.97469e-16 -4.80201 9.13418)
(2.32071e-16 -5.72237 10.3163)
(1.92433e-16 -6.54443 11.2754)
(7.89611e-17 -6.79131 12.1206)
(3.80919e-17 -6.65871 14.1109)
(8.07616e-16 -8.43999 19.2751)
(3.56916e-15 -13.8959 26.448)
(8.40475e-15 -13.9079 27.1089)
(1.01279e-14 49.8568 36.9879)
(5.37403e-15 42.1789 -189.626)
(-7.80101e-15 317.377 -109.555)
(4.05608e-18 -0.785764 2.31577)
(-8.3926e-19 -1.32523 2.59648)
(-2.63153e-17 -1.68358 2.96553)
(-7.26805e-17 -2.10476 3.47362)
(-1.02677e-16 -2.56988 4.0974)
(-6.71997e-17 -3.10427 4.84446)
(9.034e-18 -3.72055 5.70862)
(4.41557e-17 -4.43193 6.671)
(3.99029e-17 -5.2415 7.67769)
(4.04744e-17 -6.10824 8.61876)
(2.07045e-17 -6.86531 9.3564)
(-2.13485e-17 -7.25498 9.92769)
(-1.38384e-17 -7.65779 10.7593)
(4.33188e-16 -9.89748 11.1764)
(2.03349e-15 -13.0592 5.95251)
(4.70021e-15 -1.58707 -21.7666)
(3.55475e-15 49.5868 -31.8518)
(3.29232e-15 93.5863 -166.21)
(2.1536e-15 234.24 -78.1062)
(1.64139e-19 -0.840367 2.0082)
(-4.76541e-18 -1.43427 2.21209)
(-1.87401e-17 -1.84285 2.51263)
(-3.93529e-17 -2.30782 2.93045)
(-4.78959e-17 -2.81756 3.44973)
(-2.73654e-17 -3.39512 4.07327)
(2.68534e-18 -4.0498 4.79458)
(8.11539e-18 -4.78576 5.59531)
(-1.82008e-18 -5.58987 6.42839)
(-8.11345e-18 -6.40458 7.20189)
(-1.58847e-17 -7.07644 7.79367)
(-2.74618e-17 -7.37917 8.12945)
(-2.01391e-17 -7.40771 8.02025)
(1.51977e-16 -7.86865 5.30584)
(7.27839e-16 -4.90974 -10.1497)
(1.24902e-15 14.0651 -38.4323)
(1.33548e-15 62.8898 -67.7771)
(2.85306e-16 100.607 -123.134)
(-4.79281e-16 211.772 -61.5365)
(-3.64045e-19 -0.879106 1.69375)
(-2.612e-18 -1.52085 1.83676)
(-7.56695e-18 -1.97736 2.0765)
(-1.33983e-17 -2.48243 2.41388)
(-1.36303e-17 -3.03287 2.8393)
(-5.53988e-18 -3.64959 3.35316)
(1.49009e-18 -4.3394 3.95071)
(-5.14156e-19 -5.09895 4.61724)
(-5.44481e-18 -5.90193 5.31592)
(-9.61559e-18 -6.67432 5.97381)
(-1.20725e-17 -7.25254 6.4814)
(-1.42545e-17 -7.35918 6.70193)
(-1.2228e-17 -6.6417 6.27606)
(3.3509e-17 -4.38663 3.25404)
(1.39965e-16 7.52538 -16.5849)
(1.8124e-16 23.704 -26.5922)
(3.51642e-16 73.7221 -69.9427)
(2.90505e-16 104.529 -91.4016)
(-6.74329e-16 179.453 -44.6948)
(-2.19539e-19 -0.905818 1.38681)
(-9.56285e-19 -1.58119 1.49101)
(-2.17084e-18 -2.07243 1.68342)
(-2.87423e-18 -2.60624 1.95642)
(-1.41854e-18 -3.18593 2.30605)
(1.17426e-18 -3.83072 2.73295)
(1.13269e-18 -4.5456 3.23644)
(-1.22948e-18 -5.32173 3.80885)
(-2.65208e-18 -6.12309 4.428)
(-4.24929e-18 -6.86164 5.04537)
(-4.75115e-18 -7.35553 5.57693)
(-4.8946e-18 -7.26607 5.88422)
(-5.16989e-18 -5.88804 5.6864)
(1.16103e-19 -1.54701 4.22169)
(4.78401e-18 12.8791 -11.1225)
(5.66866e-18 32.4513 -11.6114)
(6.82743e-17 81.9392 -55.295)
(1.61705e-17 107.651 -61.4318)
(1.99282e-16 166.852 -25.3553)
(-6.8447e-20 -0.924875 0.887389)
(-2.08498e-19 -1.64162 0.950182)
(-3.00728e-19 -2.17551 1.07287)
(-2.02273e-22 -2.74571 1.24827)
(8.52664e-19 -3.36339 1.47768)
(1.34965e-18 -4.04706 1.76246)
(5.04597e-19 -4.80158 2.10581)
(-5.23347e-19 -5.61484 2.50789)
(-6.45196e-19 -6.44402 2.963)
(-8.99691e-19 -7.18794 3.45224)
(-8.45807e-19 -7.63859 3.93335)
(-7.73876e-19 -7.38288 4.31391)
(-1.20624e-18 -5.38162 4.41438)
(-3.49666e-18 0.901841 4.59527)
(-8.28925e-18 20.0878 -6.22362)
(-9.11171e-18 39.0857 -0.380397)
(1.76466e-17 90.0592 -38.426)
(4.00173e-17 96.871 -25.4257)
(-1.14328e-16 141.47 -16.0537)
(-1.31923e-14 65.7675 81.8133)
(-1.08757e-14 83.9109 107.526)
(-3.03499e-14 76.8147 101.296)
(-1.4107e-14 82.531 91.1956)
(5.25023e-15 83.8831 93.8477)
(-2.42386e-13 91.3029 96.3253)
(-2.20841e-13 97.4292 113.236)
(-1.35e-13 105.086 120.025)
(-9.73366e-14 107.351 123.263)
(-9.5482e-14 108.693 126.68)
(-9.90451e-14 110.34 130.72)
(-9.40473e-14 111.305 135.624)
(-1.05228e-13 113.492 140.282)
(-2.6051e-12 112.128 147.297)
(4.43668e-10 117.141 151.833)
(-1.47685e-08 111.937 162.59)
(3.58915e-07 124.185 169.471)
(1.20647e-07 115.968 193.237)
(1.86227e-09 142.354 215.672)
(-1.21823e-09 121.952 290.345)
(1.37574e-14 79.6365 158.804)
(6.9613e-13 98.7778 161.188)
(5.97921e-13 79.8824 146.035)
(5.79461e-13 83.5802 132.191)
(5.7324e-13 80.9865 132.091)
(-6.81677e-14 85.0897 129.534)
(1.85572e-13 86.1544 128.703)
(2.99781e-13 87.4068 128.176)
(3.2357e-13 88.6904 128.763)
(3.6673e-13 89.9344 129.822)
(3.28575e-13 91.2997 130.942)
(3.19188e-13 91.8509 132.679)
(3.11754e-13 93.9494 133.642)
(-2.21142e-12 92.2224 136.961)
(4.67934e-10 97.5603 136.344)
(1.66877e-09 90.4999 142.284)
(5.70226e-07 98.674 139.898)
(1.37246e-07 87.8203 148.838)
(-5.99349e-09 97.2595 137.878)
(-1.41958e-09 96.0036 199.107)
(7.75146e-15 84.0903 165.508)
(5.01877e-13 107.984 165.973)
(4.62286e-13 78.0791 145.275)
(4.30194e-13 82.5592 129.451)
(4.37667e-13 76.5333 132.892)
(-3.10943e-14 80.6507 130.954)
(1.07854e-13 79.4794 131.999)
(1.62312e-13 80.9066 131.923)
(1.80009e-13 81.3824 132.335)
(1.34542e-13 81.9465 132.716)
(1.7707e-13 82.6349 133.139)
(1.55919e-13 82.6547 134.073)
(1.37112e-13 84.2008 134.183)
(1.76999e-13 82.1073 136.592)
(-1.41184e-11 86.9748 134.976)
(2.06287e-09 79.4949 141.109)
(-9.40031e-08 89.8093 136.815)
(-1.19469e-08 77.9335 146.655)
(5.72162e-10 89.3061 133.109)
(7.714e-11 89.2637 180.296)
(-1.57261e-15 89.0794 177.856)
(-3.39967e-14 112.013 169.473)
(-3.28896e-14 77.0748 146.873)
(-2.87737e-14 83.3786 129.609)
(-3.94061e-14 75.8383 133.981)
(8.07004e-13 80.4403 131.899)
(4.84332e-13 78.6771 133.192)
(5.39083e-13 79.6027 132.683)
(5.1153e-13 79.546 132.854)
(4.32228e-13 79.7254 132.978)
(6.02153e-13 80.0016 133.085)
(4.57582e-13 79.7912 133.528)
(4.2948e-13 80.8635 133.217)
(4.47267e-13 78.8312 134.82)
(7.86278e-13 82.938 132.695)
(-6.23058e-11 76.0301 137.027)
(5.23353e-09 85.3874 131.513)
(4.4141e-10 73.2361 140.026)
(-9.35233e-13 85.688 129.228)
(-3.31441e-13 85.2955 164.99)
(-5.55232e-17 93.5084 188.59)
(-1.03049e-15 116.772 175.096)
(-1.26788e-15 77.888 149.283)
(-7.945e-16 84.0343 129.626)
(-1.20916e-17 75.7953 134.258)
(-5.33868e-14 80.4731 132.251)
(-3.02766e-14 78.4273 133.545)
(-2.70819e-14 79.2067 133.102)
(-3.14422e-14 78.9835 133.243)
(-2.54191e-14 78.9801 133.284)
(-3.22122e-14 79.0532 133.295)
(-2.86937e-14 78.7751 133.54)
(-2.59645e-14 79.4921 133.183)
(-2.83839e-14 77.8439 134.322)
(-3.68534e-14 80.8464 132.58)
(1.29326e-12 75.9355 135.707)
(-9.34974e-11 82.7178 131.761)
(-4.67648e-12 74.5089 137.445)
(-2.57681e-13 82.4131 129.26)
(-4.19942e-14 82.1542 153.36)
(1.29523e-16 97.8551 199.019)
(1.26601e-15 122.392 182.189)
(1.41836e-15 78.732 151.686)
(1.04243e-15 84.1403 128.563)
(1.32642e-15 75.2898 133.225)
(-7.33042e-16 80.1272 131.394)
(-2.40251e-15 78.0621 132.774)
(-2.32913e-15 78.7553 132.357)
(-2.25597e-15 78.4908 132.503)
(-2.54582e-15 78.4391 132.553)
(-2.28233e-15 78.4334 132.585)
(-2.1895e-15 78.2107 132.765)
(-2.55552e-15 78.6885 132.509)
(-2.19776e-15 77.4212 133.379)
(-2.19271e-15 79.7269 131.979)
(-2.74974e-14 75.7928 134.435)
(1.19783e-13 81.2754 131.234)
(-1.44427e-14 74.8079 135.89)
(-3.65641e-15 80.599 128.771)
(4.83986e-16 78.9035 144.704)
(-4.24049e-17 102.579 209.927)
(-3.52454e-16 128.754 190.684)
(-4.08988e-16 80.2546 154.912)
(-2.99169e-16 84.3394 127.762)
(-4.60828e-16 74.9871 132.027)
(1.30049e-15 79.824 130.527)
(1.72265e-15 77.8871 131.906)
(1.56468e-15 78.4517 131.569)
(1.52082e-15 78.1995 131.698)
(1.75123e-15 78.107 131.769)
(1.60602e-15 78.0426 131.835)
(1.62548e-15 77.8936 131.976)
(1.80661e-15 78.1375 131.863)
(1.59502e-15 77.2967 132.499)
(1.50597e-15 78.854 131.548)
(1.39656e-15 76.0411 133.389)
(-2.9104e-15 80.2414 130.937)
(1.21303e-15 75.0026 135.14)
(1.20756e-15 78.5608 126.127)
(-1.66421e-16 74.5909 136.063)
(8.45057e-18 107.974 221.396)
(6.1568e-17 136.173 201.221)
(7.39107e-17 82.6301 159.097)
(5.39579e-17 84.2711 126.689)
(9.60091e-17 74.4755 130.184)
(-3.67348e-16 79.2477 129.156)
(-4.6731e-16 77.543 130.586)
(-4.21571e-16 77.9698 130.361)
(-4.08414e-16 77.755 130.498)
(-4.84234e-16 77.6363 130.623)
(-4.3842e-16 77.5275 130.759)
(-4.54613e-16 77.463 130.902)
(-5.07224e-16 77.4903 130.973)
(-4.40639e-16 77.0681 131.428)
(-4.11934e-16 77.9035 130.972)
(-3.81252e-16 76.2282 132.233)
(-4.80844e-16 78.932 130.761)
(-3.86071e-16 75.6638 134.026)
(-3.23077e-16 76.8591 126.118)
(6.8275e-17 70.9418 126.46)
(-1.19835e-18 114.475 234.77)
(-7.66004e-18 144.637 213.155)
(-9.51251e-18 84.5821 163.474)
(-6.93179e-18 83.8884 125.126)
(-1.40084e-17 73.4038 128.261)
(6.55617e-17 78.5124 127.466)
(8.28541e-17 76.9097 129.067)
(7.51235e-17 77.3122 128.893)
(7.27222e-17 77.1526 129.042)
(8.8033e-17 77.0477 129.21)
(7.92068e-17 76.925 129.414)
(8.38431e-17 76.962 129.559)
(9.38575e-17 76.8077 129.808)
(8.06897e-17 76.7872 130.095)
(7.49685e-17 76.9405 130.135)
(6.96885e-17 76.4165 130.838)
(8.88294e-17 77.5569 130.472)
(7.23175e-17 76.2617 132.227)
(5.96311e-17 75.0855 126.492)
(-1.57278e-17 67.3144 116.67)
(1.29867e-19 122.781 250.725)
(7.19352e-19 152.001 223.617)
(9.28916e-19 84.0315 165.889)
(6.76169e-19 83.3746 123.289)
(1.52725e-18 71.5829 127.511)
(-8.46367e-18 77.933 126.068)
(-1.0654e-17 75.8731 127.99)
(-9.7445e-18 76.4929 127.649)
(-9.45049e-18 76.3504 127.788)
(-1.16504e-17 76.3021 127.931)
(-1.04468e-17 76.1887 128.147)
(-1.1278e-17 76.3279 128.251)
(-1.26738e-17 76.0316 128.613)
(-1.08085e-17 76.3411 128.72)
(-1.00048e-17 75.9841 129.117)
(-9.02386e-18 76.3735 129.558)
(-1.04964e-17 76.3897 130.009)
(-9.0999e-18 76.3315 130.429)
(-8.12823e-18 73.2047 125.786)
(2.49534e-18 63.6837 108.251)
(-1.11949e-20 132.933 267.063)
(-5.33622e-20 153.832 228.012)
(-7.22466e-20 80.5564 164.728)
(-5.24113e-20 83.5507 123.021)
(-1.30197e-19 69.5216 128.894)
(8.52849e-19 77.8402 125.634)
(1.05682e-18 74.6086 127.929)
(9.73749e-19 75.6925 127.132)
(9.47951e-19 75.4579 127.205)
(1.18921e-18 75.4789 127.185)
(1.06217e-18 75.3588 127.285)
(1.1706e-18 75.5552 127.237)
(1.32097e-18 75.1522 127.56)
(1.11746e-18 75.6606 127.423)
(1.03378e-18 74.9124 127.978)
(9.23477e-19 75.7353 127.953)
(1.06569e-18 74.9627 128.819)
(9.4753e-19 75.5121 128.21)
(8.59211e-19 71.4399 124.474)
(-3.00419e-19 61.0064 102.698)
(7.91766e-22 142.5 278.323)
(3.19076e-21 145.869 222.333)
(4.4077e-21 78.6664 162.996)
(3.24673e-21 84.7796 127.488)
(8.97793e-21 68.3633 131.594)
(-6.99501e-20 77.9826 126.66)
(-8.39843e-20 73.7483 129.063)
(-7.76327e-20 75.2805 127.686)
(-7.5838e-20 74.8508 127.59)
(-9.6695e-20 74.891 127.232)
(-8.5932e-20 74.6664 127.027)
(-9.67959e-20 74.7699 126.665)
(-1.09784e-19 74.2334 126.73)
(-9.22008e-20 74.6897 126.283)
(-8.56127e-20 73.7292 126.682)
(-7.61786e-20 74.5121 126.217)
(-8.82631e-20 73.3821 127.084)
(-7.93872e-20 74.1194 125.96)
(-7.26086e-20 70.3707 123.384)
(2.82625e-20 59.6962 100.893)
(-4.61106e-23 144.79 276.633)
(-1.39865e-22 130.714 209.275)
(-1.67093e-22 82.2194 164.82)
(-1.42942e-22 85.194 135.942)
(-4.54078e-22 69.5446 134.212)
(4.6363e-21 78.0622 130.07)
(5.35541e-21 74.5445 131.693)
(4.92411e-21 76.0149 129.681)
(4.79418e-21 75.4165 129.029)
(6.1692e-21 75.3465 128.041)
(5.46653e-21 74.8804 127.212)
(6.26025e-21 74.6782 126.273)
(7.15256e-21 73.895 125.797)
(6.01243e-21 74.0087 124.924)
(5.6174e-21 72.8008 124.924)
(5.46035e-21 73.2975 123.947)
(7.25331e-21 71.9728 124.446)
(6.24681e-21 72.6013 123.294)
(5.00265e-21 69.8994 122.609)
(-2.07113e-21 58.6946 100.09)
(2.0327e-24 134.615 254.638)
(3.7703e-24 118.602 200.177)
(3.61627e-24 87.1972 169.153)
(4.20066e-24 85.445 145.343)
(1.18315e-23 74.2801 138.955)
(-2.39208e-22 80.0057 138.291)
(-2.71463e-22 78.8339 138.343)
(-2.45826e-22 79.4553 135.062)
(-2.35393e-22 78.5004 132.896)
(-3.01464e-22 77.9801 130.601)
(-2.66373e-22 77.0568 128.533)
(-3.0588e-22 76.3051 126.498)
(-3.51497e-22 75.0666 125.021)
(-2.98486e-22 74.6004 123.373)
(-2.79853e-22 72.9906 122.637)
(-2.77722e-22 72.8896 121.144)
(-3.87635e-22 71.2359 121.013)
(-3.4163e-22 71.1318 119.905)
(-2.77879e-22 69.1626 120.408)
(1.14472e-22 56.0695 95.6956)
(-5.93946e-26 118.273 219.274)
(-5.67227e-26 110.318 193.775)
(-4.07642e-26 92.5785 173.693)
(-4.9091e-26 88.3397 156.781)
(2.69692e-25 84.2438 149.663)
(8.44162e-24 87.7242 152.862)
(1.12581e-23 88.339 151.635)
(9.95901e-24 87.4877 146.051)
(9.33341e-24 85.5495 141.297)
(1.17919e-23 83.9435 136.806)
(1.03053e-23 82.1109 132.707)
(1.17461e-23 80.4004 128.859)
(1.34589e-23 78.3358 125.697)
(1.14939e-23 76.9395 122.643)
(1.07502e-23 74.5857 120.588)
(1.08418e-23 73.5125 117.936)
(1.55277e-23 70.9362 116.655)
(1.45636e-23 69.6207 114.772)
(1.23816e-23 67.3541 114.898)
(-4.80315e-24 50.5544 85.3725)
(1.28748e-27 107.528 186.141)
(5.82552e-28 106.739 188.833)
(2.22027e-28 103.145 176.722)
(-6.21069e-28 99.5442 169.969)
(-1.44324e-26 103.297 165.518)
(-2.59707e-25 104.968 167.85)
(-3.34538e-25 103.136 163.67)
(-3.02927e-25 100.639 156.09)
(-2.81544e-25 97.2783 149.019)
(-3.50181e-25 94.0247 142.382)
(-3.0455e-25 90.7445 136.147)
(-3.42507e-25 87.5363 130.269)
(-3.9008e-25 84.1142 125.053)
(-3.35642e-25 81.1233 120.125)
(-3.13365e-25 77.4701 116.088)
(-3.20587e-25 74.5529 111.611)
(-4.69706e-25 70.331 108.326)
(-4.70456e-25 67.3163 104.822)
(-4.27108e-25 62.6096 102.106)
(1.41651e-25 41.0721 65.1949)
(-1.99245e-29 111.78 186.385)
(-5.35908e-30 133.153 221.07)
(8.47253e-31 128.662 206.735)
(1.94458e-29 122.753 195.998)
(1.93635e-28 122.282 187.198)
(5.76693e-27 119.556 177.747)
(7.04669e-27 114.085 169.295)
(6.50726e-27 110.077 160.229)
(6.04471e-27 105.736 151.577)
(7.34745e-27 101.304 143.188)
(6.36988e-27 96.8715 135.061)
(6.98283e-27 92.4674 127.207)
(7.80964e-27 87.9005 119.767)
(6.74685e-27 83.3884 112.507)
(6.25141e-27 78.4077 105.715)
(6.40688e-27 73.4433 98.5773)
(9.40617e-27 67.618 92.4149)
(9.98105e-27 63.1088 86.4256)
(1.01724e-26 52.4909 76.0677)
(-1.72124e-27 26.684 26.6383)
(3.25899e-31 113.326 241.137)
(6.53716e-32 167.012 241.605)
(-7.53964e-32 123.379 235.574)
(-5.89984e-31 133.807 211.12)
(-4.13454e-30 117.094 204.734)
(-1.27394e-28 114.985 190.907)
(-1.52642e-28 107.98 180.622)
(-1.39809e-28 102.745 170.261)
(-1.29194e-28 97.6667 160.498)
(-1.54454e-28 92.8787 150.969)
(-1.29713e-28 88.1903 141.578)
(-1.38806e-28 83.5629 132.196)
(-1.49078e-28 78.8655 122.734)
(-1.24378e-28 73.9661 113.026)
(-1.11433e-28 68.8422 103.072)
(-1.10124e-28 63.5726 93.109)
(-1.53243e-28 58.6818 84.2341)
(-1.59829e-28 53.1977 73.3697)
(-1.75692e-28 31.3942 42.6431)
(-7.75979e-29 6.06834 -22.4732)
(-4.70985e-33 98.8642 259.102)
(-7.91144e-34 156.096 219.573)
(1.41605e-33 107.319 224.866)
(1.65618e-32 117.028 208.709)
(2.07713e-31 101.87 202.594)
(1.75051e-30 97.5955 193.118)
(1.8732e-30 90.1363 185.446)
(1.60651e-30 84.6154 177.29)
(1.45701e-30 79.0796 169.579)
(1.62959e-30 74.1799 161.867)
(1.35324e-30 69.5788 154.146)
(1.44462e-30 65.2388 146.197)
(1.48355e-30 61.0106 137.833)
(1.22697e-30 56.7802 128.885)
(1.12982e-30 52.6808 119.561)
(1.20172e-30 49.3726 111.03)
(1.6747e-30 46.5025 103.016)
(1.7852e-30 36.8109 82.5722)
(3.29054e-30 4.62829 19.0966)
(1.86161e-29 -26.9916 -58.2105)
(4.17055e-35 30.652 156.805)
(5.0037e-37 73.7836 127.551)
(-4.55456e-35 51.0788 135.161)
(-3.78439e-34 49.1312 131.924)
(-2.41165e-33 41.7174 131.569)
(-9.59241e-33 37.1305 130.204)
(-9.25478e-33 32.5143 129.017)
(-7.34458e-33 28.7919 127.556)
(-6.34908e-33 25.5716 125.934)
(-6.49086e-33 22.9586 124.073)
(-5.40937e-33 20.8937 121.968)
(-5.62151e-33 19.3832 119.558)
(-5.54919e-33 18.3987 116.768)
(-4.67073e-33 17.9844 113.527)
(-4.49634e-33 18.3633 109.94)
(-5.18003e-33 19.5708 106.663)
(-7.25829e-33 21.7103 104.206)
(-7.62854e-33 26.2828 100.027)
(-6.80554e-33 26.5162 89.5016)
(1.05941e-34 3.47367 61.3503)
(-6.59002e-35 -30.894 157.499)
(-1.77705e-35 -74.8939 128.844)
(2.37356e-35 -51.5276 135.845)
(3.87964e-34 -49.6032 132.6)
(3.07636e-33 -42.1066 132.207)
(1.30651e-32 -37.4512 130.831)
(1.10464e-32 -32.7906 129.579)
(9.96164e-33 -29.0036 128.064)
(7.11303e-33 -25.7297 126.388)
(5.50979e-33 -23.067 124.488)
(4.79135e-33 -20.9608 122.355)
(4.65586e-33 -19.4145 119.922)
(5.43027e-33 -18.3993 117.114)
(5.63756e-33 -17.9591 113.856)
(4.94351e-33 -18.316 110.25)
(4.8178e-33 -19.5077 106.965)
(4.75688e-33 -21.6473 104.525)
(-7.53966e-35 -26.1589 100.352)
(-2.23907e-32 -26.2325 89.5329)
(6.60518e-33 -3.36369 61.0017)
(6.40684e-33 -100.295 256.532)
(2.82229e-33 -152.857 220.359)
(2.74956e-33 -107.962 225.318)
(7.51745e-34 -115.916 209.523)
(-1.68797e-31 -101.128 203.317)
(-1.93968e-30 -96.7505 193.679)
(-1.83275e-30 -89.1724 185.981)
(-1.81781e-30 -83.6529 177.851)
(-1.37487e-30 -78.1294 170.153)
(-1.09145e-30 -73.2423 162.411)
(-9.63132e-31 -68.6372 154.614)
(-9.21558e-31 -64.2879 146.562)
(-1.11092e-30 -60.0441 138.074)
(-1.21926e-30 -55.7932 128.99)
(-1.072e-30 -51.6928 119.546)
(-1.02039e-30 -48.4554 110.9)
(-1.11565e-30 -45.6165 102.599)
(-7.57547e-31 -35.0439 80.9132)
(7.66478e-30 -0.347167 14.4459)
(6.62248e-29 30.745 -59.5007)
(-4.01911e-31 -115.834 260.503)
(-1.64753e-31 -164.998 235.735)
(-1.59971e-31 -116.196 236.135)
(-4.88171e-31 -131.817 212.147)
(-2.23567e-30 -113.033 205.485)
(1.39907e-28 -111.72 191.051)
(1.43834e-28 -103.995 180.831)
(1.53328e-28 -99.1293 169.678)
(1.22229e-28 -93.9043 159.459)
(9.90406e-29 -89.1712 149.507)
(8.86926e-29 -84.5703 139.825)
(8.30079e-29 -80.0457 130.205)
(1.00944e-28 -75.4523 120.528)
(1.16646e-28 -70.6508 110.61)
(1.03975e-28 -65.5916 100.432)
(9.55349e-29 -60.3572 90.2498)
(1.00979e-28 -55.6815 80.978)
(1.18591e-28 -49.9254 69.4643)
(1.99707e-28 -26.2216 37.9226)
(1.26174e-28 -2.03874 -25.6696)
(1.90087e-29 -112.777 235.156)
(7.53758e-30 -150.699 219.287)
(7.17794e-30 -117.512 217.207)
(2.49265e-29 -128.879 195.065)
(1.48029e-28 -115.681 187.388)
(-5.56805e-27 -114.043 174.699)
(-6.08992e-27 -108.871 164.944)
(-6.61974e-27 -104.791 155.5)
(-5.48415e-27 -100.874 146.846)
(-4.59805e-27 -96.921 138.693)
(-4.28197e-27 -92.8762 130.843)
(-4.17106e-27 -88.7906 123.21)