/*--------------------------------*- C++ -*----------------------------------*\
| =========                 |                                                 |
| \\      /  F ield         | OpenFOAM: The Open Source CFD Toolbox           |
|  \\    /   O peration     | Version:  4.1                                   |
|   \\  /    A nd           | Web:      www.OpenFOAM.org                      |
|    \\/     M anipulation  |                                                 |
\*---------------------------------------------------------------------------*/
FoamFile
{
    version     2.0;
    format      ascii;
    class       volVectorField;
    location    "4";
    object      U;
}
// * * * * * * * * * * * * * * * * * * * * * * * * * * * * * * * * * * * * * //

dimensions      [0 1 -1 0 0 0 0];

internalField   nonuniform List<vector> 
1280
(
(7.40893e-18 13.985 0.153826)
(-8.46335e-17 17.0654 -1.98978)
(6.0421e-17 15.6542 -1.6479)
(7.34442e-17 16.224 -1.6065)
(4.32973e-17 20.0395 -4.06691)
(2.27592e-17 17.2593 -3.3175)
(-5.90835e-17 19.4891 -3.4892)
(2.0486e-16 18.5683 -3.56779)
(-1.11115e-15 23.3606 -6.85729)
(-1.1559e-15 20.8931 -5.41387)
(-1.51551e-15 22.4196 -5.18769)
(1.7012e-15 26.82 -9.17809)
(2.71673e-15 24.2563 -7.03508)
(2.18626e-15 26.1528 -6.54292)
(5.95025e-15 31.3476 -10.7775)
(4.59871e-15 27.845 -8.36963)
(2.8467e-15 30.9835 -8.25688)
(2.18997e-15 31.2567 -13.6971)
(-4.17036e-16 36.1963 -10.4766)
(-2.45313e-15 28.7436 -17.563)
(-2.30578e-14 35.2222 30.3075)
(-3.71546e-14 35.9661 45.0746)
(-4.59735e-14 37.6483 54.2847)
(-5.29377e-14 38.9267 63.3501)
(-5.84103e-14 38.6351 73.0953)
(-6.18162e-14 39.5133 81.0477)
(-7.18481e-14 35.2825 85.7544)
(-6.7898e-14 57.5996 134.245)
(-6.94572e-14 58.575 142.351)
(-7.17382e-14 59.515 148.286)
(-7.39047e-14 59.6745 152.457)
(-7.52757e-14 59.6136 155.487)
(-7.69815e-14 59.4398 157.546)
(-7.88905e-14 59.1062 158.942)
(-7.94295e-14 58.7912 159.638)
(-8.02739e-14 58.3368 159.934)
(-8.07602e-14 58.085 159.634)
(-8.13612e-14 57.4987 159.138)
(-8.36886e-14 57.7406 158.477)
(-8.69957e-14 56.8957 153.515)
(-9.16621e-14 67.4276 142.049)
(-6.12181e-14 28.5637 81.2759)
(-5.76522e-14 18.0744 68.7612)
(-4.5617e-14 12.6945 50.5215)
(-2.28219e-14 3.78291 15.3207)
(-1.61698e-15 -1.46427 -4.472)
(3.90097e-15 -0.579065 -9.81064)
(7.22031e-15 1.04612 -12.0799)
(1.29105e-14 -0.228561 -20.864)
(3.31233e-15 -0.888292 -13.3366)
(-5.29006e-15 0.803618 -13.004)
(-1.58549e-14 0.0403745 -19.2242)
(-1.02735e-14 -1.31194 -11.2619)
(-7.98524e-15 0.217237 -9.32242)
(-2.91056e-15 1.1061 -4.61389)
(1.65827e-14 -4.02126 11.8025)
(3.62656e-14 -11.8955 42.7802)
(4.96699e-14 -16.5154 62.8239)
(5.68929e-14 -26.5491 78.6323)
(8.78156e-14 -66.398 141.873)
(8.62709e-14 -55.8742 154.669)
(8.03476e-14 -56.6517 159.795)
(7.75787e-14 -56.3713 160.586)
(7.68554e-14 -56.9207 161.047)
(7.7519e-14 -57.1337 161.268)
(7.78673e-14 -57.5461 160.868)
(7.8027e-14 -57.8208 160.045)
(7.58891e-14 -58.087 158.511)
(7.38786e-14 -58.2106 156.282)
(7.14855e-14 -58.1921 153.072)
(6.88801e-14 -57.9727 148.804)
(6.47604e-14 -57.0031 142.925)
(6.05468e-14 -55.9165 134.908)
(5.15969e-14 -31.8835 83.7164)
(4.42249e-14 -37.4003 78.9037)
(3.72192e-14 -36.3901 70.4455)
(2.61932e-14 -36.8866 60.0465)
(1.44383e-14 -36.0302 49.999)
(4.11294e-15 -34.5561 40.5269)
(-5.66663e-15 -34.0591 27.6326)
(-9.48352e-15 -26.6345 -19.1326)
(-3.71127e-15 -34.8958 -12.9554)
(2.5094e-15 -26.2147 -16.532)
(5.04236e-15 -26.5013 -7.42864)
(5.52218e-15 -23.3265 -8.48738)
(6.59369e-15 -25.9764 -10.8293)
(4.26813e-15 -21.2625 -6.50254)
(4.25296e-15 -19.6202 -7.17562)
(4.06847e-15 -20.5969 -9.52898)
(2.10703e-15 -16.8889 -5.08043)
(1.95977e-15 -15.6089 -5.44049)
(1.40901e-15 -16.5969 -6.897)
(-8.09213e-16 -12.9729 -3.44468)
(-8.14417e-16 -13.4224 -3.43142)
(-8.53597e-16 -11.8593 -3.30468)
(-1.18203e-15 -12.9189 -4.1543)
(-1.00113e-15 -10.357 -1.54561)
(-9.91957e-16 -9.94889 -1.68949)
(-9.11901e-16 -10.0159 -2.08404)
(1.76809e-16 -8.16957 0.153787)
(2.75287e-17 6.21191 8.23416)
(-6.97982e-17 9.14664 9.29543)
(-2.38867e-16 10.3564 10.3608)
(-3.55374e-16 11.9813 11.8944)
(-1.9072e-16 13.4261 13.7938)
(2.82145e-16 15.0277 16.4875)
(6.33797e-16 17.2022 20.7457)
(1.45528e-16 21.1232 27.5347)
(-1.49163e-15 25.5504 36.5987)
(-3.36526e-15 22.4037 44.0466)
(-3.16091e-15 2.90371 37.5918)
(-1.22717e-15 -14.5489 19.5694)
(-6.08905e-16 -21.2792 11.3274)
(-2.71879e-16 -23.3179 5.31586)
(-7.76711e-17 -26.8772 0.0684545)
(-3.7299e-17 -27.7409 -3.50888)
(-1.97087e-17 -21.0706 -6.63997)
(9.6452e-19 -15.4718 -6.8881)
(7.82383e-17 -7.50748 -8.94733)
(-3.09933e-16 5.8517 10.7951)
(-7.24025e-16 8.45254 12.1091)
(-1.22547e-15 9.48478 13.349)
(-1.58986e-15 10.8354 15.2029)
(-1.28379e-15 11.8696 17.5507)
(-2.82516e-16 12.6247 21.1293)
(3.73563e-16 13.2986 27.208)
(-8.4568e-16 15.4527 37.6198)
(-4.17306e-15 19.6361 52.5006)
(-7.59865e-15 21.6082 66.5724)
(-7.26173e-15 12.1678 62.4899)
(-2.0509e-15 -7.10644 28.1752)
(-6.25025e-17 -17.0691 8.45807)
(-3.65842e-16 -20.2885 5.50209)
(-9.51909e-17 -24.4411 0.545265)
(-3.24144e-17 -25.6817 -2.92855)
(-2.14878e-17 -19.9254 -6.60245)
(-1.53643e-17 -14.5978 -7.7501)
(9.75297e-17 -8.85574 -9.60714)
(-9.83725e-16 5.61 12.432)
(-1.89818e-15 8.06106 13.9178)
(-2.78203e-15 8.98165 15.228)
(-3.28787e-15 10.1541 17.2507)
(-2.59905e-15 10.856 19.9042)
(-9.09511e-16 10.9021 24.1301)
(-2.32507e-17 10.2471 31.285)
(-1.92347e-15 10.5626 43.49)
(-6.29035e-15 13.5203 60.9329)
(-1.08307e-14 17.9752 79.3658)
(-1.23231e-14 18.207 85.8931)
(-7.89873e-15 8.41463 60.3665)
(-3.26764e-16 -11.4272 12.1037)
(2.80411e-16 -19.3189 1.38327)
(-1.7453e-16 -22.8901 1.61959)
(-4.04983e-17 -24.0472 -1.91731)
(4.52126e-18 -18.6974 -6.14846)
(3.14944e-17 -13.7631 -8.79216)
(1.36889e-16 -9.69375 -10.7628)
(-2.30989e-15 5.21973 14.3222)
(-4.04228e-15 7.43618 16.1085)
(-5.3239e-15 8.19133 17.5529)
(-5.69999e-15 9.06943 19.8271)
(-4.16064e-15 9.22292 22.9373)
(-1.49794e-15 8.20305 28.0102)
(-4.09874e-16 5.71716 35.9072)
(-2.82082e-15 3.86694 48.0792)
(-7.40572e-15 5.75396 64.2785)
(-1.19156e-14 12.2693 81.4401)
(-1.48345e-14 20.0106 93.6285)
(-1.39954e-14 22.3664 86.4483)
(-6.57285e-15 7.03864 46.6252)
(1.03412e-16 -16.1553 3.02777)
(6.48243e-17 -23.8418 -0.131548)
(-3.51576e-17 -22.7796 0.0470305)
(-1.93531e-16 -17.8528 -5.30137)
(-1.93558e-16 -13.1689 -10.1029)
(-7.79406e-16 -10.2048 -13.3986)
(-4.62328e-15 4.79583 16.335)
(-7.46225e-15 6.81388 18.4925)
(-8.89063e-15 7.42158 20.1604)
(-8.54296e-15 7.98206 22.7921)
(-5.57833e-15 7.5458 26.4104)
(-1.85968e-15 5.70942 32.2434)
(-6.07307e-16 2.24185 39.7518)
(-2.65728e-15 -0.773912 47.8252)
(-5.91062e-15 0.343469 57.0811)
(-8.67162e-15 6.81974 66.6002)
(-1.08154e-14 15.6536 74.8801)
(-1.27455e-14 26.9911 79.5379)
(-8.48193e-15 22.4173 66.4768)
(-1.7606e-15 -1.63899 34.0549)
(6.54011e-16 -21.0175 4.40005)
(-2.37001e-16 -21.466 1.70221)
(7.92558e-16 -13.7658 -2.84791)
(8.25739e-16 -9.60046 -10.6234)
(8.84226e-16 -9.93886 -12.702)
(-8.19896e-15 4.24461 18.5163)
(-1.22713e-14 6.01072 21.1689)
(-1.32822e-14 6.43548 23.2256)
(-1.1382e-14 6.60054 26.3699)
(-6.4897e-15 5.40419 30.2761)
(-1.86579e-15 2.7643 36.1537)
(-6.81236e-16 -0.652535 43.3177)
(-2.39252e-15 -3.2021 49.6147)
(-4.87451e-15 -2.25137 55.3951)
(-6.68429e-15 3.8776 58.7718)
(-7.50267e-15 14.2779 59.6759)
(-7.43512e-15 26.5202 56.3423)
(-6.14361e-15 25.1874 64.7201)
(2.36048e-15 9.18959 61.7125)
(7.62034e-15 -12.0591 31.2984)
(2.55016e-15 -20.2608 9.38121)
(-3.31446e-15 -15.3804 -1.71387)
(-2.38402e-15 -11.0035 -12.3869)
(-6.56716e-15 -11.1013 -29.0285)
(-1.30039e-14 3.57984 20.9193)
(-1.82009e-14 5.03979 24.1781)
(-1.81332e-14 5.27598 26.7441)
(-1.39478e-14 5.19811 30.4767)
(-6.89991e-15 3.68367 34.1604)
(-1.67137e-15 0.59808 37.867)
(-6.73404e-16 -3.0069 42.0214)
(-2.19898e-15 -5.45318 47.552)
(-4.07383e-15 -3.27418 52.4666)
(-4.52879e-15 5.91125 50.4473)
(-4.68806e-15 16.2687 45.433)
(-5.92157e-15 24.5719 43.7012)
(-6.27686e-15 20.0886 64.9956)
(9.66749e-15 11.769 78.2945)
(3.03782e-14 0.269515 67.3851)
(3.12004e-14 -6.02246 39.3496)
(2.00431e-14 -0.113211 15.5873)
(1.12553e-14 6.37101 0.737986)
(2.56261e-14 -7.18451 30.2003)
(-1.82708e-14 2.7584 23.5437)
(-2.43432e-14 3.82219 27.4579)
(-2.30683e-14 3.84676 30.4316)
(-1.65529e-14 3.66348 34.6235)
(-7.31403e-15 2.39714 38.4803)
(-1.8527e-15 -0.487484 41.188)
(-1.42782e-15 -4.54966 42.307)
(-1.97934e-15 -7.29276 43.2784)
(-1.18396e-15 -3.38044 40.8496)
(4.03762e-16 7.92379 31.3549)
(-3.02175e-15 17.4483 30.5681)
(-1.05633e-14 17.9153 49.2472)
(-8.8181e-15 11.9496 73.6828)
(1.3888e-14 7.75551 91.7223)
(5.20255e-14 2.38218 99.8408)
(8.23874e-14 -1.84401 97.9231)
(9.67794e-14 -5.69547 101.663)
(9.63106e-14 -20.2282 113.346)
(9.51129e-14 -49.4508 131.794)
(-2.17934e-14 1.79151 26.2784)
(-2.83283e-14 2.44836 30.7548)
(-2.7062e-14 2.32084 33.6538)
(-2.02035e-14 1.97978 37.1593)
(-8.96843e-15 0.939036 39.653)
(5.78409e-17 -1.0102 40.7416)
(1.80943e-15 -3.70305 39.4206)
(8.47815e-16 -4.80856 35.7946)
(1.33482e-15 0.735631 29.2423)
(-7.18725e-16 8.45447 28.0173)
(-9.60649e-15 10.0111 41.8011)
(-1.75036e-14 7.60172 64.4431)
(-1.19261e-14 3.30124 84.018)
(8.41055e-15 1.507 96.6645)
(3.80164e-14 -1.66402 104.387)
(6.48949e-14 -4.13756 104.937)
(8.39088e-14 -4.56942 103.447)
(8.71219e-14 -9.62321 97.2622)
(6.89748e-14 -21.6327 77.23)
(-1.89022e-14 0.718608 28.5764)
(-2.39504e-14 1.06328 33.374)
(-2.37091e-14 1.20329 35.6928)
(-2.13975e-14 1.36886 37.3196)
(-1.74376e-14 1.07695 35.8776)
(-1.33194e-14 -0.372396 30.9897)
(-8.79649e-15 -2.86605 23.9538)
(1.76967e-15 -3.53824 18.7006)
(1.45313e-15 0.0547468 19.5989)
(-3.89187e-15 3.27463 33.3693)
(-1.55294e-14 2.47835 54.5473)
(-2.29576e-14 0.4801 73.0609)
(-1.73074e-14 -0.80076 83.5419)
(-7.284e-15 -0.829822 88.9619)
(7.30862e-15 -1.95369 91.9226)
(1.92995e-14 -2.42301 89.1827)
(2.34193e-14 -1.80801 78.1379)
(2.62026e-14 -2.99063 56.1245)
(2.09613e-14 -5.73366 24.9261)
(-2.34659e-15 -0.424674 28.733)
(-1.30032e-15 -0.190987 33.6213)
(1.97824e-15 0.623492 36.0481)
(4.80948e-15 1.87743 38.0829)
(6.34393e-15 3.28903 37.8083)
(6.86724e-15 3.88752 34.184)
(5.89217e-15 2.14208 24.7898)
(-5.51435e-16 -2.61627 11.9005)
(1.27861e-15 -5.69803 10.5457)
(-4.68519e-16 -5.64399 28.8132)
(-3.87478e-15 -5.13271 51.3657)
(-4.80428e-15 -4.12375 68.761)
(-3.34988e-15 -2.80725 79.4078)
(-6.72676e-15 -1.50725 87.0049)
(-1.65162e-14 -1.31583 91.4474)
(-3.07725e-14 1.74526 91.6544)
(-4.61257e-14 6.90277 83.4631)
(-4.90624e-14 9.22594 61.2484)
(-3.17466e-14 8.45848 25.5508)
(2.34695e-15 -1.53478 26.5271)
(1.76952e-15 -1.64008 31.2335)
(1.5215e-15 -0.658744 34.2755)
(9.45236e-16 0.779903 37.7078)
(6.20715e-16 2.68777 39.9546)
(6.39145e-16 4.7247 40.9481)
(7.89387e-16 5.69921 38.8284)
(5.66551e-16 2.13617 30.7971)
(-2.24034e-16 -6.62144 19.6333)
(-4.29225e-16 -12.4368 23.4957)
(3.96662e-16 -13.2202 39.9525)
(3.81954e-15 -10.8171 58.3313)
(4.5242e-15 -8.09811 74.2424)
(-1.01372e-14 -5.90655 92.1846)
(-4.41835e-14 -3.90003 106.148)
(-7.83253e-14 1.48229 112.042)
(-9.99141e-14 10.2035 112.406)
(-1.0188e-13 20.144 106.026)
(-7.90568e-14 28.8745 82.7918)
(3.26039e-15 -2.56801 23.7892)
(2.1302e-15 -3.10828 28.0188)
(1.45533e-15 -2.1142 31.4445)
(1.05104e-15 -0.427279 36.1217)
(1.02421e-15 1.88208 40.222)
(1.27028e-15 4.34336 43.526)
(1.72465e-15 6.44865 45.5461)
(1.7408e-15 5.14825 44.425)
(2.45213e-16 -3.54308 36.3164)
(-9.60068e-16 -13.7858 29.1833)
(6.18609e-16 -18.8511 33.2887)
(5.98365e-15 -18.2715 47.3984)
(8.12914e-15 -16.2308 66.6118)
(-9.39703e-15 -14.1451 88.0835)
(-5.00357e-14 -9.70044 102.663)
(-8.09428e-14 -1.25293 100.958)
(-8.51381e-14 9.02809 93.5407)
(-8.8847e-14 24.3164 102.187)
(-1.00137e-13 52.6394 129.03)
(2.90779e-15 -3.45193 21.1246)
(1.91151e-15 -4.51994 24.6515)
(1.37829e-15 -3.95416 27.8996)
(1.12074e-15 -2.65048 33.2063)
(1.10058e-15 -0.259705 39.4229)
(1.54657e-15 2.57755 45.3788)
(2.63439e-15 5.32182 50.4293)
(3.7676e-15 5.69932 54.1781)
(3.35314e-15 -0.627456 52.3679)
(1.66826e-15 -11.447 44.636)
(2.24644e-15 -20.382 40.595)
(6.67977e-15 -24.1765 46.5817)
(9.35166e-15 -24.156 61.593)
(-3.35246e-15 -20.0998 78.0555)
(-2.82959e-14 -8.652 77.5138)
(-3.00791e-14 6.26552 50.0291)
(-1.37555e-14 11.4231 21.3121)
(-1.07992e-14 4.74667 7.36852)
(-3.70714e-14 10.9179 31.6161)
(2.16866e-15 -4.16281 18.7089)
(1.50432e-15 -5.67949 21.5809)
(1.2289e-15 -5.63004 24.3224)
(1.13282e-15 -5.04076 29.2188)
(1.12427e-15 -3.07205 36.1419)
(1.75289e-15 -0.0388157 44.7791)
(3.45743e-15 3.08973 53.3857)
(5.69411e-15 4.34896 61.4186)
(7.07392e-15 0.285083 65.7774)
(6.71574e-15 -9.09655 63.0134)
(6.79048e-15 -19.4158 58.13)
(9.35349e-15 -26.634 58.5046)
(1.09972e-14 -28.8028 64.6849)
(3.88134e-15 -20.5833 68.6324)
(-7.55934e-15 0.448662 51.3171)
(-6.40677e-15 19.1556 24.3635)
(-2.96805e-15 22.6758 10.0881)
(-2.17637e-15 17.0606 -0.672954)
(4.58317e-16 16.4428 -15.4569)
(1.40866e-15 -4.75557 16.5343)
(1.04652e-15 -6.65093 18.8878)
(9.99276e-16 -7.07087 21.1196)
(1.05554e-15 -7.32853 25.1082)
(9.87202e-16 -6.47605 31.2024)
(1.42902e-15 -4.36549 40.4956)
(3.39659e-15 -1.37308 52.5028)
(6.59953e-15 0.627901 65.2455)
(9.6982e-15 -1.35927 75.8533)
(1.14452e-14 -8.56096 80.364)
(1.23946e-14 -18.5635 79.7638)
(1.35624e-14 -26.7763 77.4565)
(1.33294e-14 -28.1811 72.8537)
(7.82795e-15 -14.8193 57.001)
(7.92888e-16 9.6041 26.1056)
(-6.41493e-16 24.2292 8.67295)
(-6.17104e-16 24.2349 2.88872)
(-2.06689e-16 18.4887 -4.19735)
(-5.24801e-16 17.2609 -11.0688)
(7.8127e-16 -5.21741 14.5261)
(6.2231e-16 -7.40721 16.4926)
(7.17128e-16 -8.15729 18.3641)
(8.9982e-16 -9.04191 21.5325)
(8.36598e-16 -9.22609 26.264)
(8.96254e-16 -8.48436 33.9374)
(2.19745e-15 -6.66 45.2571)
(5.25866e-15 -4.87313 59.8167)
(9.19373e-15 -5.68623 75.1198)
(1.27018e-14 -10.7888 87.3325)
(1.50316e-14 -18.5954 93.2577)
(1.56161e-14 -24.1931 89.4231)
(1.30488e-14 -20.6543 70.2034)
(6.44096e-15 -1.84601 32.728)
(1.28351e-15 18.894 4.62285)
(1.11298e-16 27.8118 -0.646935)
(-1.08001e-16 26.7632 -2.75678)
(-1.37897e-18 21.5543 -6.39245)
(-4.83986e-17 18.3471 -10.1357)
(3.34502e-16 -5.64396 12.626)
(2.84958e-16 -8.1407 14.2674)
(4.34666e-16 -9.16192 15.885)
(6.79455e-16 -10.5118 18.4569)
(6.85552e-16 -11.4992 22.0369)
(5.39059e-16 -12.0375 27.743)
(1.09212e-15 -11.8203 36.6346)
(3.2676e-15 -11.41 49.4663)
(6.92061e-15 -12.4167 65.2498)
(1.08135e-14 -15.801 80.4736)
(1.32507e-14 -19.254 88.2983)
(1.23585e-14 -17.3197 77.5506)
(7.06245e-15 -5.38202 41.3165)
(7.01841e-16 12.4421 0.862555)
(4.3372e-16 21.8714 -2.95612)
(3.92023e-17 27.7364 -3.6759)
(-1.08342e-16 26.8855 -5.19847)
(-1.87341e-17 22.1786 -6.4629)
(-3.73232e-17 18.4927 -9.31547)
(5.48892e-17 -5.91234 10.9624)
(5.001e-17 -8.60568 12.4033)
(2.03525e-16 -9.79239 13.8577)
(4.52468e-16 -11.3995 16.0419)
(5.30475e-16 -12.8372 18.8764)
(3.59724e-16 -14.1773 23.1152)
(4.37103e-16 -15.1541 29.7003)
(1.68155e-15 -16.0653 39.8515)
(4.50946e-15 -17.7132 53.7042)
(7.89399e-15 -19.6504 67.6781)
(9.27888e-15 -17.3616 70.6152)
(6.24963e-15 -5.46219 47.6734)
(1.27412e-15 9.25094 11.9952)
(6.45872e-16 15.1856 3.3525)
(5.55165e-16 21.5689 -0.28688)
(9.15251e-17 28.5904 -2.94078)
(-1.00336e-16 27.6156 -6.04583)
(-8.00112e-18 22.9692 -6.4654)
(-9.93601e-17 18.001 -8.92391)
(-1.0059e-16 -6.29973 8.34023)
(-1.02751e-16 -9.36648 9.47599)
(6.46441e-18 -10.7596 10.6518)
(1.80695e-16 -12.6694 12.3309)
(2.76675e-16 -14.5249 14.4005)
(1.93771e-16 -16.6049 17.2247)
(9.05537e-17 -18.8243 21.307)
(4.6093e-16 -21.4212 27.4773)
(1.81661e-15 -24.0234 36.1391)
(3.85436e-15 -22.8777 45.0545)
(4.72494e-15 -11.2003 44.758)
(2.92912e-15 6.43135 26.4472)
(1.65601e-15 14.5535 13.5858)
(1.17912e-15 18.8206 6.82068)
(6.11849e-16 24.3041 0.367755)
(7.593e-17 30.5841 -3.39063)
(-1.0929e-16 28.5834 -6.81418)
(-4.81566e-18 23.7763 -6.3654)
(-8.94755e-17 16.8392 -8.92648)
(6.56538e-16 84.3456 145.566)
(-3.69901e-14 118.118 195.825)
(-3.47769e-14 116.089 187.9)
(-3.29822e-14 107.357 168.084)
(-3.12593e-14 98.5958 150.714)
(-4.20397e-14 93.0023 139.135)
(-4.26719e-14 89.7359 132.846)
(-3.7013e-14 89.1146 131.86)
(-3.36387e-14 88.7918 132.495)
(-3.19669e-14 88.5163 133.088)
(-3.46506e-14 87.9724 133.612)
(-3.37283e-14 87.4156 134.175)
(-3.28502e-14 86.7722 134.772)
(-3.39206e-14 86.1418 135.448)
(-3.30389e-14 85.4167 136.024)
(-3.45062e-14 84.5867 136.523)
(-3.41658e-14 83.7029 136.888)
(-3.1812e-14 82.8075 137.506)
(-3.44759e-14 80.7839 135.725)
(-3.76979e-14 70.747 121.324)
(-1.42498e-15 87.6867 149.807)
(-3.96699e-14 114.171 193.715)
(-3.09707e-14 106.929 180.884)
(-3.00208e-14 95.4976 160.312)
(-3.12257e-14 84.746 142.465)
(-5.29767e-14 78.6443 131.45)
(-4.71654e-14 76.8892 129.023)
(-4.10582e-14 77.7008 129.644)
(-3.85032e-14 78.1182 130.629)
(-3.48315e-14 78.5373 130.864)
(-4.30051e-14 78.485 131.163)
(-3.85134e-14 78.6953 131.3)
(-3.97212e-14 78.5575 131.584)
(-3.77866e-14 78.6349 131.702)
(-4.0033e-14 78.2985 131.822)
(-4.19793e-14 78.0489 131.565)
(-4.09824e-14 77.4054 131.359)
(-3.77319e-14 76.8647 130.869)
(-3.8688e-14 75.4324 129.432)
(-4.26633e-14 65.7285 113.294)
(9.93163e-17 94.9088 163.75)
(-1.41294e-14 121.4 205.796)
(-1.01576e-14 111.01 188.656)
(-1.14108e-14 98.4274 165.564)
(-1.02101e-14 86.7248 146.681)
(-3.31995e-14 80.9297 135.108)
(-2.20033e-14 78.6741 131.91)
(-1.75517e-14 79.0961 131.266)
(-1.70072e-14 78.8002 131.599)
(-1.51597e-14 78.9664 131.169)
(-1.69574e-14 78.4669 131.128)
(-1.41475e-14 78.4667 130.827)
(-1.64124e-14 78.0058 130.838)
(-1.74122e-14 77.8874 130.6)
(-1.94968e-14 77.3007 130.478)
(-1.97534e-14 76.8911 129.889)
(-1.87672e-14 76.0386 129.453)
(-1.67879e-14 75.3301 128.478)
(-1.49353e-14 74.2183 127.737)
(-1.98656e-14 64.7043 111.6)
(4.10582e-17 100.444 172.989)
(3.07818e-15 122.251 207.545)
(2.30007e-15 106.98 184.475)
(2.57714e-15 94.3937 161.231)
(2.41464e-15 83.406 145.03)
(-2.74542e-14 80.0896 136.03)
(-1.81706e-14 78.0921 134.065)
(-1.7812e-14 78.7066 132.351)
(-1.9772e-14 77.7136 131.943)
(-1.87866e-14 77.9161 130.744)
(-1.88493e-14 77.134 130.338)
(-1.65656e-14 77.1256 129.577)
(-1.89057e-14 76.502 129.244)
(-1.75678e-14 76.3002 128.627)
(-1.88254e-14 75.5964 128.163)
(-2.03936e-14 75.0854 127.252)
(-2.15034e-14 74.1354 126.484)
(-1.98892e-14 73.1989 124.957)
(-1.83067e-14 72.3735 124.693)
(-2.33671e-14 63.1715 108.751)
(-2.3805e-17 106.652 184.013)
(-6.55589e-16 120.549 204.846)
(-5.48224e-16 102.718 179.289)
(-5.83816e-16 92.9663 159.419)
(-6.11767e-16 84.6991 148.262)
(5.35168e-15 83.4617 141.317)
(4.66618e-15 80.7819 138.679)
(4.13729e-15 80.8175 135.372)
(4.04962e-15 79.0495 133.853)
(3.73139e-15 78.9215 131.877)
(4.23108e-15 77.7783 130.847)
(3.61273e-15 77.4642 129.572)
(4.03709e-15 76.5913 128.741)
(4.2723e-15 76.1097 127.738)
(4.58718e-15 75.2264 126.892)
(4.69083e-15 74.5018 125.725)
(4.48269e-15 73.408 124.633)
(4.02129e-15 72.0901 122.559)
(3.81357e-15 71.2655 122.242)
(4.72715e-15 61.867 106.378)
(9.54811e-18 111.377 192.694)
(1.40437e-16 115.796 197.407)
(1.33704e-16 99.9992 175.102)
(1.37273e-16 94.092 160.605)
(1.54791e-16 88.6903 153.472)
(-9.75808e-16 87.7405 147.118)
(-1.01197e-15 84.372 142.835)
(-9.31609e-16 83.3652 138.219)
(-8.75053e-16 81.1335 135.419)
(-8.26085e-16 80.3597 132.749)
(-9.42088e-16 78.9461 130.932)
(-8.45199e-16 78.1447 129.131)
(-8.88093e-16 77.0149 127.705)
(-9.2711e-16 76.1512 126.278)
(-9.71623e-16 75.0343 125)
(-1.02512e-15 74.0198 123.53)
(-9.26466e-16 72.6713 122.073)
(-8.91035e-16 70.8625 119.323)
(-8.68676e-16 69.4549 118.234)
(-1.04408e-15 59.1769 101.201)
(-3.54091e-18 113.694 197.848)
(-3.00025e-17 112.895 193.237)
(-3.02934e-17 102.735 177.86)
(-3.08112e-17 99.2718 167.135)
(-3.77008e-17 95.3812 160.672)
(1.64397e-16 93.1308 153.305)
(2.08426e-16 89.163 146.873)
(2.01382e-16 86.8068 141.052)
(1.92707e-16 84.2104 136.888)
(1.85709e-16 82.5755 133.468)
(2.00146e-16 80.8325 130.791)
(1.93638e-16 79.4203 128.394)
(1.95588e-16 77.9196 126.313)
(1.97714e-16 76.567 124.366)
(2.03043e-16 75.0686 122.579)
(2.13189e-16 73.6341 120.666)
(1.99237e-16 71.8261 118.721)
(2.00601e-16 69.3775 115.122)
(2.03488e-16 66.7561 112.479)
(2.35532e-16 54.7273 92.7514)
(1.00951e-18 113.053 197.661)
(5.07556e-18 116.266 199.569)
(4.43514e-18 111.283 189.059)
(4.35809e-18 107.994 178.617)
(6.69313e-18 103.429 169.126)
(-2.49893e-17 98.9806 159.07)
(-3.98786e-17 94.2058 150.356)
(-4.12242e-17 90.6149 143.169)
(-3.99102e-17 87.4851 137.627)
(-3.87302e-17 85.0049 133.223)
(-4.03452e-17 82.7539 129.62)
(-4.0858e-17 80.7095 126.487)
(-4.13686e-17 78.6892 123.69)
(-4.11908e-17 76.7672 121.089)
(-4.15977e-17 74.7139 118.674)
(-4.31065e-17 72.7085 116.117)
(-4.24263e-17 70.1755 113.467)
(-4.35286e-17 66.9281 108.782)
(-4.60994e-17 62.4916 103.993)
(-4.99917e-17 48.0085 79.9859)
(-1.491e-19 111.389 194.828)
(-4.14524e-19 126.955 217.69)
(-1.50342e-19 124.552 208.958)
(-8.43806e-20 118.838 194.244)
(-5.58676e-19 111.11 178.772)
(3.64262e-18 104.289 164.931)
(6.17167e-18 98.5763 154.079)
(6.43424e-18 94.0846 145.331)
(6.22801e-18 90.27 138.266)
(5.96404e-18 87.0118 132.496)
(6.11603e-18 84.1022 127.693)
(6.38973e-18 81.4092 123.53)
(6.63587e-18 78.7628 119.803)
(6.73452e-18 76.2 116.309)
(6.93092e-18 73.4458 113.02)
(7.40699e-18 70.7139 109.507)
(7.78113e-18 67.1817 105.786)
(8.21657e-18 62.9564 99.6247)
(9.27144e-18 56.2242 92.266)
(9.99679e-18 38.9747 62.6814)
(-1.25935e-20 110.958 194.14)
(-2.28788e-20 141.38 240.891)
(-3.90008e-20 137.827 231.792)
(-4.10186e-20 127.268 208.452)
(-5.19019e-20 115.712 188.055)
(-5.32545e-19 108.067 171.908)
(-5.67867e-19 101.684 159.764)
(-3.11968e-19 96.6338 149.341)
(-2.14697e-19 92.0612 140.499)
(-1.61568e-19 88.0372 132.894)
(-1.36275e-19 84.3694 126.397)
(-1.71603e-19 80.9641 120.706)
(-2.073e-19 77.6082 115.593)
(-2.13145e-19 74.3247 110.769)
(-2.6046e-19 70.7485 106.166)
(-4.46401e-19 67.1485 101.213)
(-7.33734e-19 62.4031 95.9062)
(-9.18614e-19 57.0692 87.7636)
(-1.12042e-18 47.8469 77.5371)
(-2.05705e-18 27.9905 41.5089)
(7.14178e-21 112.165 197.655)
(-3.45688e-21 155.349 261.41)
(-2.15946e-20 143.886 245.743)
(-3.34828e-20 130.534 215.406)
(-9.15543e-21 117.649 196.561)
(4.31911e-20 111.353 180.399)
(-1.15538e-20 104.206 168.145)
(-8.7436e-20 98.9106 156.139)
(-9.9454e-20 93.4081 145.647)
(-9.67323e-20 88.6028 135.999)
(-1.01248e-19 84.0216 127.466)
(-1.03911e-19 79.7482 119.751)
(-1.08999e-19 75.5035 112.705)
(-1.26593e-19 71.3267 105.983)
(-1.50423e-19 66.7594 99.4978)
(-1.48615e-19 62.1494 92.561)
(-9.13162e-20 56.1111 85.1729)
(-4.77657e-20 49.691 74.7284)
(-1.06231e-19 38.0714 61.2588)
(3.77817e-19 16.4462 19.1073)
(8.49781e-22 116.436 207.384)
(1.26065e-20 165.666 274.297)
(2.50749e-20 142.39 248.653)
(3.18761e-20 132.188 217.973)
(2.95228e-20 118.66 203.997)
(1.88489e-20 114.711 188.035)
(1.33497e-21 106.026 176.584)
(-2.58084e-20 100.974 163.397)
(-4.80686e-20 94.2915 152.131)
(-6.05617e-20 88.8803 140.874)
(-6.9801e-20 83.2367 130.632)
(-7.44791e-20 77.9816 120.88)
(-7.75659e-20 72.6432 111.721)
(-7.91048e-20 67.4073 102.815)
(-7.25825e-20 61.7559 94.1749)
(-5.53055e-20 56.1666 85.0771)
(-3.53277e-20 49.045 75.5238)
(-2.11391e-20 41.8053 62.9404)
(1.66996e-20 27.8597 45.4738)
(-3.87107e-20 6.34408 -0.0230747)
(-1.3694e-21 125.157 225.045)
(-7.83145e-21 169.246 276.145)
(-1.32359e-20 137.865 246.388)
(-1.53295e-20 134.083 218.941)
(-1.83677e-20 118.835 208.99)
(-1.25088e-20 117.151 192.287)
(1.16128e-20 106.339 181.777)
(3.97141e-20 101.961 167.762)
(5.39204e-20 93.9982 156.555)
(5.9638e-20 88.3164 144.368)
(6.49856e-20 81.6408 133.194)
(6.85803e-20 75.5626 121.992)
(7.22133e-20 69.2251 111.268)
(7.7296e-20 63.1403 100.7)
(8.02805e-20 56.7186 90.4847)
(7.59844e-20 50.5424 79.8432)
(6.19986e-20 42.7143 68.5692)
(4.86528e-20 34.8108 54.1804)
(4.90889e-20 18.2546 32.0298)
(2.80304e-20 -2.11401 -12.6506)
(6.23727e-22 134.624 244.941)
(3.25222e-21 168.338 271.21)
(5.06092e-21 134.35 244.838)
(5.46819e-21 136.532 220.141)
(7.6117e-21 119.058 211.909)
(4.50583e-21 118.936 194.096)
(-8.12654e-21 106.639 183.936)
(-2.09313e-20 102.811 169.364)
(-2.59347e-20 94.1138 158.129)
(-2.73303e-20 88.3481 145.415)
(-2.90005e-20 81.1596 133.762)
(-3.02299e-20 74.7714 121.875)
(-3.17819e-20 68.1211 110.504)
(-3.44211e-20 61.8791 99.2931)
(-3.70022e-20 55.2957 88.3811)
(-3.72637e-20 48.7692 76.7382)
(-3.29567e-20 40.0839 63.6878)
(-2.82873e-20 30.8418 47.1952)
(-3.8479e-20 12.8927 22.2454)
(1.96267e-22 -5.9123 -15.7472)
(-2.01563e-22 142.225 263.168)
(-1.06891e-21 166.747 265.152)
(-1.56551e-21 133.833 247.332)
(-1.59641e-21 140.037 223.574)
(-2.4823e-21 120.943 215.721)
(-1.2502e-21 121.756 197.388)
(3.34568e-21 109.247 187.081)
(7.58118e-21 105.625 172.386)
(8.94933e-21 97.1634 160.791)
(9.12705e-21 91.4781 147.898)
(9.46065e-21 84.6603 135.978)
(9.71937e-21 78.6253 123.999)
(1.01105e-20 72.4769 112.451)
(1.09129e-20 66.4814 100.735)
(1.19561e-20 59.6088 88.4833)
(1.27443e-20 51.732 74.3058)
(1.25174e-20 40.6788 57.4937)
(1.14022e-20 28.307 36.723)
(2.11106e-20 7.69452 8.81484)
(-5.59922e-21 -9.21759 -26.0292)
(5.42601e-23 146.719 278.076)
(2.9514e-22 166.439 261.616)
(4.12294e-22 135.021 252.757)
(3.99798e-22 143.792 229.355)
(6.60457e-22 123.876 221.93)
(2.7784e-22 125.415 204.062)
(-1.00511e-21 113.381 193.933)
(-2.10417e-21 110.103 179.802)
(-2.40622e-21 102.407 168.384)
(-2.37903e-21 97.3437 156.054)
(-2.38851e-21 91.5831 144.699)
(-2.3909e-21 86.5955 133.379)
(-2.42052e-21 81.3295 121.9)
(-2.5459e-21 75.2538 108.868)
(-2.76755e-21 66.684 92.9425)
(-3.03854e-21 54.8574 72.4216)
(-3.22698e-21 38.8151 49)
(-3.48513e-21 21.6923 22.1327)
(-2.66831e-21 -4.57694 -9.60136)
(2.69612e-21 -19.2395 -47.9455)
(-1.28976e-23 145.173 283.039)
(-7.30536e-23 164.02 257.061)
(-9.71272e-23 132.519 253.879)
(-8.81105e-23 141.954 231.559)
(-1.6919e-22 122.224 224.752)
(-5.65494e-23 123.211 208.46)
(2.831e-22 111.962 199.064)
(5.29928e-22 108.641 186.385)
(5.65518e-22 101.621 176.15)
(5.36479e-22 97.2489 165.477)
(5.21797e-22 92.4539 155.91)
(5.02571e-22 88.2594 146.058)
(4.87007e-22 82.8299 134.428)
(4.94378e-22 74.4484 117.919)
(5.51115e-22 60.3186 93.2335)
(6.65351e-22 39.4767 59.0063)
(7.81914e-22 16.4698 25.8558)
(6.72124e-22 -2.35861 -4.36032)
(-3.74203e-21 -26.6921 -32.9493)
(9.27422e-21 -28.5391 -64.7995)
(3.4539e-24 134.227 274.283)
(1.71964e-23 158.026 249.251)
(2.08918e-23 122.61 247.226)
(2.30986e-23 129.576 227.641)
(2.95458e-23 111.653 220.529)
(-1.93767e-23 108.816 207.105)
(-8.6958e-23 98.9819 197.784)
(-1.12923e-22 93.4957 187.04)
(-1.06629e-22 86.7198 177.686)
(-9.84504e-23 81.4815 168.584)
(-9.32776e-23 76.3303 160.172)
(-8.95278e-23 71.0646 150.796)
(-9.0872e-23 63.5932 137.573)
(-8.04261e-23 51.4405 115.856)
(-1.02283e-23 31.5529 80.316)
(-2.65347e-23 4.48683 30.9365)
(-8.17807e-22 -18.0582 -13.251)
(-2.17116e-21 -26.2655 -31.5033)
(-1.46066e-21 -31.7775 -41.798)
(4.24642e-21 -24.3043 -40.7017)
(-8.65094e-25 108.671 253.796)
(-3.81071e-24 147.315 225.258)
(-4.27332e-24 107.299 228.316)
(-3.9038e-24 112.74 213.613)
(-4.58714e-25 96.6278 208.208)
(9.63652e-24 91.4468 198.994)
(1.60435e-23 82.1901 191.853)
(1.57299e-23 75.5042 184.082)
(1.35845e-23 68.4451 176.842)
(1.21548e-23 62.2721 169.686)
(1.09005e-23 56.3127 162.68)
(9.11845e-24 50.3726 154.995)
(7.86497e-24 43.6914 145.232)
(1.39164e-23 35.8868 131.958)
(3.50596e-23 27.5112 114.871)
(3.66522e-23 20.2603 94.9496)
(-1.24797e-22 15.3915 73.8599)
(-5.97153e-22 11.9114 52.0473)
(-1.05478e-21 6.15178 24.9589)
(-4.93913e-22 -2.86434 -3.12255)
(2.39098e-25 35.6027 157.452)
(5.81646e-25 78.2767 130.026)
(4.85506e-25 52.6466 138.128)
(1.54824e-25 52.6149 134.021)
(-5.23324e-25 44.1984 133.981)
(-1.31243e-24 39.877 132.32)
(-1.46731e-24 34.8949 131.029)
(-1.2312e-24 30.9765 129.361)
(-1.0225e-24 27.4273 127.537)
(-8.97603e-25 24.5152 125.525)
(-7.56337e-25 22.2439 123.553)
(-4.93051e-25 20.8107 121.908)
(-2.62243e-25 20.3218 120.739)
(-1.03921e-24 20.7489 119.741)
(-3.89264e-24 22.0253 118.104)
(-5.56121e-24 23.8789 115.128)
(5.55604e-24 25.8592 110.713)
(3.72673e-23 30.1137 103.03)
(6.29972e-23 33.0893 89.4758)
(3.23299e-23 7.45743 66.2009)
(-1.57799e-25 -35.6107 157.467)
(-3.7826e-26 -78.2816 130.04)
(8.97564e-26 -52.6515 138.144)
(2.25479e-25 -52.6182 134.037)
(3.79119e-25 -44.2006 133.997)
(5.15754e-25 -39.8783 132.337)
(6.17068e-25 -34.8955 131.046)
(6.91054e-25 -30.9766 129.378)
(7.51227e-25 -27.4274 127.556)
(7.77229e-25 -24.5163 125.546)
(7.23249e-25 -22.2468 123.579)
(5.29112e-25 -20.815 121.939)
(2.90452e-25 -20.3247 120.769)
(6.76619e-25 -20.746 119.767)
(2.74953e-24 -22.015 118.126)
(5.46407e-24 -23.8643 115.157)
(2.17738e-24 -25.8478 110.757)
(-1.47361e-23 -30.1174 103.076)
(-3.4585e-23 -33.106 89.5078)
(-2.33272e-23 -7.46793 66.2244)
(9.85138e-25 -108.671 253.803)
(4.99051e-25 -147.324 225.268)
(-3.60304e-25 -107.302 228.317)
(-1.3299e-24 -112.746 213.611)
(-2.66881e-24 -96.635 208.204)
(-4.24264e-24 -91.4565 198.986)
(-5.75212e-24 -82.2026 191.842)
(-7.07674e-24 -75.5204 184.07)
(-8.38263e-24 -68.4662 176.828)
(-9.48943e-24 -62.2992 169.672)
(-9.8645e-24 -56.3465 162.666)
(-8.9979e-24 -50.4155 154.982)
(-7.47898e-24 -43.7508 145.232)
(-9.81003e-24 -35.9721 131.99)
(-2.37158e-23 -27.6073 114.944)
(-3.87955e-23 -20.2993 95.0139)
(2.21568e-23 -15.2969 73.774)
(2.94786e-22 -11.6833 51.7308)
(7.09906e-22 -5.88635 24.6118)
(6.07348e-22 3.02315 -3.34539)
(-5.20264e-24 -134.231 274.307)
(-2.95002e-24 -158.035 249.23)
(1.40686e-24 -122.621 247.227)
(5.9648e-24 -129.603 227.623)
(1.22192e-23 -111.68 220.506)
(2.08176e-23 -108.852 207.074)
(3.10088e-23 -99.0236 197.746)
(4.11682e-23 -93.5455 186.997)
(5.21405e-23 -86.7782 177.636)
(6.45973e-23 -81.5499 168.529)
(7.57035e-23 -76.4075 160.107)
(8.28663e-23 -71.1514 150.72)
(8.8211e-23 -63.7078 137.515)
(8.47445e-23 -51.6645 115.956)
(1.89802e-23 -32.0302 80.8376)
(-1.01681e-22 -5.13431 31.8267)
(2.59724e-22 17.692 -12.755)
(1.60921e-21 26.0766 -31.4325)
(2.42177e-21 31.6618 -41.6451)
(-1.48424e-21 24.3398 -41.0586)
(2.58768e-23 -145.122 282.9)
(1.56067e-23 -163.982 256.873)
(-6.84488e-24 -132.408 253.676)
(-3.02343e-23 -141.91 231.324)
(-5.95764e-23 -122.138 224.538)
(-9.8488e-23 -123.19 208.214)
(-1.4704e-22 -111.927 198.822)
(-1.99221e-22 -108.642 186.112)