/*--------------------------------*- C++ -*----------------------------------*\
| =========                 |                                                 |
| \\      /  F ield         | OpenFOAM: The Open Source CFD Toolbox           |
|  \\    /   O peration     | Version:  4.1                                   |
|   \\  /    A nd           | Web:      www.OpenFOAM.org                      |
|    \\/     M anipulation  |                                                 |
\*---------------------------------------------------------------------------*/
FoamFile
{
    version     2.0;
    format      ascii;
    class       volScalarField;
    location    "21";
    object      p;
}
// * * * * * * * * * * * * * * * * * * * * * * * * * * * * * * * * * * * * * //

dimensions      [0 2 -2 0 0 0 0];

internalField   nonuniform List<scalar> 
1280
(
1.02644
0.899282
2.55419
3.06584
4.47243
4.78741
4.84753
4.97945
5.00112
5.0204
4.62935
4.1078
3.19818
1.73982
1.08133
-1.80281
-5.30032
-7.67341
-12.457
-24.5961
-17.1096
-3.52965
13.0751
24.8053
31.516
38.3529
3.28682
15.1339
15.9581
15.6041
14.9293
14.1699
13.0208
11.7188
10.9966
11.6936
14.7806
19.2822
26.2617
26.0732
-5.67935
13.048
18.5667
23.3691
39.8607
37.379
37.6272
38.7035
39.8949
39.8036
39.7648
39.8722
37.8294
36.9392
36.9413
38.1761
20.3296
16.7408
11.9619
-13.7408
26.8933
27.8688
20.6239
16.0861
13.0085
12.6712
13.8773
15.7077
17.4306
18.7854
20.0327
21.3539
21.4732
5.19257
47.9332
42.063
36.0283
24.8871
7.97419
-7.06486
-16.4932
-1.8459
-6.08418
-6.13814
1.45719
0.499609
1.72244
6.71944
4.85948
6.43318
8.66498
6.45587
6.30536
6.30961
6.48618
5.83426
1.73037
2.37444
0.633032
1.18166
-0.0296967
-0.143845
-0.427829
-0.607323
-0.592195
-0.537669
-0.199124
0.90204
1.9478
2.55043
3.5071
4.67322
7.2746
9.31386
1.89408
0.12681
-2.05392
-3.24192
-1.62056
-0.0705227
-0.426667
-1.15622
-1.77081
-2.13508
-2.21797
-1.73196
-0.67061
0.847226
2.57966
5.35336
8.92013
16.1119
22.9882
9.2311
2.10489
-8.62834
-12.7006
-4.23952
-0.149902
-0.850078
-2.10489
-3.6252
-4.78428
-4.86706
-3.42285
-2.01718
0.0416501
2.45488
6.1019
10.7798
20.4691
31.3637
17.1126
0.859458
-21.0087
-27.2461
-9.08468
-0.185927
-1.26074
-3.10639
-5.79463
-8.10514
-8.32472
-5.74001
-3.58913
-0.608104
2.56506
7.04749
12.7822
25.0935
37.474
24.2027
0.755101
-32.9855
-43.3409
-17.0255
-0.197076
-1.67234
-4.31018
-8.51977
-12.2368
-12.6092
-8.79078
-5.69841
-1.63157
2.39591
7.69009
14.3911
28.8793
39.1947
28.6982
2.60395
-39.8467
-51.2188
-24.5369
-0.175144
-2.09334
-5.69632
-11.4524
-16.3844
-16.837
-12.048
-8.02954
-2.82306
1.95755
7.82856
15.2208
31.1293
37.6143
29.7329
5.53797
-40.2065
-49.6607
-22.2175
-0.182412
-2.62494
-7.2491
-14.1394
-19.6213
-20.1135
-14.9128
-10.1763
-4.01539
1.32887
7.52888
15.2761
31.3285
33.6185
28.9904
7.86435
-37.6088
-48.6897
-21.2911
-0.280196
-3.28959
-8.708
-15.9674
-20.9873
-21.6733
-16.859
-11.872
-5.15774
0.518709
6.82017
14.4766
28.8501
28.7291
26.2331
9.96221
-23.3943
-36.1876
-9.00765
-0.435218
-3.97945
-9.66419
-16.5458
-21.0293
-21.9633
-18.104
-13.0528
-6.1878
-0.421956
5.76868
12.9969
25.1518
23.7664
23.1774
11.4345
-6.49634
-3.45054
41.3559
-0.579526
-4.54999
-10.0685
-16.2375
-20.3571
-21.4701
-18.4741
-13.6292
-7.03811
-1.41453
4.47308
11.0318
21.098
17.6482
18.7845
10.6249
-1.01766
6.28728
45.8914
-0.745982
-4.93443
-10.1675
-15.5663
-19.1928
-20.3463
-18.0279
-13.7064
-7.68587
-2.38474
3.03789
8.66663
15.4442
6.32797
9.37971
8.74618
5.99691
11.2401
45.4067
-0.962252
-5.09994
-10.0571
-14.6749
-17.8307
-18.8949
-17.1411
-13.4451
-8.13083
-3.27399
1.56489
6.05572
8.5969
-4.16111
3.68868
10.2091
12.6304
16.0133
47.4245
-1.18841
-5.05639
-9.72533
-13.6355
-16.3809
-17.3269
-16.0195
-12.9338
-8.35459
-3.99139
0.289007
3.90503
4.42745
-2.04969
3.67551
8.68964
12.3703
13.7042
9.28572
-1.41135
-4.82841
-9.18688
-12.437
-14.8306
-15.6606
-14.7021
-12.1745
-8.31627
-4.49746
-0.759177
2.19673
1.2751
2.7312
2.41973
8.21308
11.214
11.9532
4.84259
-1.568
-4.43182
-8.48674
-11.1053
-13.165
-13.8783
-13.1878
-11.1644
-7.9919
-4.71616
-1.41049
1.07927
-1.90623
5.30711
2.69008
7.59137
10.665
11.3863
6.79958
-1.62315
-3.83536
-7.57854
-9.6531
-11.3538
-11.936
-11.4311
-9.83743
-7.31995
-4.68698
-2.02084
0.0608769
-4.74001
3.08328
2.80103
6.53022
9.07826
9.44306
7.71858
-1.93392
-3.28923
-6.53039
-8.02483
-9.33671
-9.77538
-9.43152
-8.27208
-6.40853
-4.29505
-1.83438
0.66611
-2.29729
-0.882008
2.71872
5.28359
7.51104
7.99237
6.61756
-1.12172
-2.04735
-5.15403
-6.29407
-7.12858
-7.41128
-7.13859
-6.28791
-4.97108
-3.57056
-2.31979
-0.80974
3.71242
-2.42359
3.01404
4.25888
6.03563
6.37868
5.4841
-2.26379
-1.85124
-3.80815
-4.23932
-4.50053
-4.63907
-4.51429
-4.16697
-3.62744
-2.66111
-0.667939
1.21181
7.27872
-3.46114
2.41567
2.88774
4.29612
4.61981
3.90277
-0.578322
0.928531
-1.5486
-1.89288
-1.97834
-1.96779
-1.82813
-1.49444
-0.985518
-0.740064
-2.54361
-6.42591
1.09826
-4.81614
-0.00597514
-0.206098
0.2578
0.960573
1.26358
132.89
130.647
128.962
126.827
124.08
121.285
117.938
113.994
109.636
105.483
101.477
97.6879
94.2103
91.1661
88.6805
86.7015
84.8694
83.0603
81.6621
79.4349
110.217
109.948
108.388
107.736
106.756
105.987
105.506
105.203
104.86
104.301
103.365
101.782
99.3933
96.2029
92.6211
89.4462
87.2019
85.9685
85.9906
84.3282
124.158
124.157
122.711
122.529
122.139
121.875
121.493
121.108
120.77
120.439
120.144
119.843
119.505
119.035
118.294
117.265
116.345
115.404
115.26
114.135
103.395
105.208
105.677
106.759
107.496
108.216
108.974
109.558
110.097
110.475
110.72
110.828
110.869
110.948
111.276
111.915
112.908
113.983
114.843
115.426
85.1345
87.3955
88.7929
90.252
91.6269
92.7226
93.9677
95.037
96.1396
97.1879
98.2148
99.2183
100.203
101.185
102.184
103.265
104.372
105.652
106.584
107.815
63.2729
65.7921
68.2634
70.2176
72.2484
73.7665
75.4738
76.9364
78.4084
79.7972
81.1363
82.4378
83.6971
84.9396
86.1413
87.3696
88.5212
89.8161
90.7479
92.0924
44.6942
46.7722
49.1811
50.6329
52.6959
54.0869
55.9067
57.4495
59.1106
60.7208
62.3444
63.9888
65.6555
67.3836
69.1392
70.9972
72.7986
74.7381
76.1784
78.3197
21.3341
21.0369
21.9461
21.4205
22.282
22.0732
22.7043
22.7829
23.1939
23.4749
23.8995
24.4024
25.0488
25.9049
27.0042
28.5857
30.5869
33.5841
35.9998
39.4438
20.9397
16.1633
15.3741
12.2797
11.0077
8.26668
6.69616
4.37152
2.77363
1.15888
0.126437
-0.606804
-0.98033
-1.11312
-1.03524
-0.768879
-0.33649
0.445398
1.25956
4.33751
63.8576
57.9692
56.2291
51.6142
49.1593
44.7704
41.521
37.1799
33.4431
29.4101
25.987
22.8873
20.4731
18.6865
17.694
17.3484
17.5119
17.9558
17.2751
16.3965
112.132
109.91
110.129
108.133
108.425
106.84
106.753
105.555
104.984
103.837
102.687
101.01
98.8711
96.0923
92.8579
89.4184
86.569
85.5275
85.0326
80.9981
107.988
108.91
110.108
109.641
111.307
110.906
112.034
111.936
112.326
112.132
111.913
111.462
110.966
110.444
109.977
109.553
109.13
108.435
108.3
107.273
91.892
93.5721
96.1058
95.9876
98.9776
99.3313
101.567
102.612
104.169
105.331
106.358
107.061
107.429
107.508
107.546
107.863
108.762
110.088
111.217
112.066
65.9015
67.0993
70.4891
69.894
73.5087
73.6738
76.2179
77.4383
79.2969
80.9552
82.6741
84.4118
86.1446
87.8862
89.6145
91.396
93.1682
95.1633
96.8126
98.8358
34.0259
33.414
37.1152
35.5259
39.2825
38.7363
41.2659
42.0808
43.849
45.3031
46.9359
48.5923
50.2967
52.0898
53.9576
56.027
58.1247
60.6832
62.9805
66.4428
21.4012
17.3039
19.3452
14.9977
16.6588
13.6682
13.872
12.3298
11.8499
11.0357
10.5566
10.1885
10.1077
10.4678
11.4336
13.062
14.666
16.4818
17.8538
21.1753
61.6932
55.4554
56.7665
48.8839
47.8709
41.9705
38.7182
34.0378
30.0967
25.8876
21.9297
18.0618
14.5338
11.5822
9.5283
8.21685
7.28681
6.60062
5.41194
6.39902
82.1044
74.5428
82.4494
75.0969
76.8904
73.2212
71.7305
68.9204
66.413
63.6077
60.8133
58.0157
55.3889
53.1648
51.5895
50.4921
49.6053
48.7474
47.1322
45.3036
94.874
72.6911
80.948
70.1171
67.6099
61.1736
56.4502
51.3729
47.0008
43.0987
39.9294
37.5607
36.1559
35.9195
37.0645
39.3468
42.3987
46.522
50.4262
51.6662
775.295
693.137
644.255
588.386
539.684
492.7
449
407.703
368.796
331.986
297.095
263.937
232.322
202.204
173.663
145.934
119.027
96.7885
71.8851
35.8121
777.053
694.894
646.013
590.143
541.441
494.458
450.758
409.461
370.556
333.746
298.856
265.699
234.085
203.968
175.426
147.697
120.79
98.5507
73.6463
37.5749
96.6202
74.4384
82.6956
71.8655
69.3587
62.9231
58.2003
53.1235
48.7519
44.8503
41.6813
39.3129
37.9085
37.6724
38.8173
41.099
44.1503
48.2742
52.1805
53.4218
83.8932
76.3332
84.2415
76.8908
78.6865
75.0193
73.531
70.7231
68.218
65.4149
62.6226
59.8272
57.2027
54.9812
53.4079
52.3107
51.4243
50.5682
48.9543
47.1233
63.4911
57.252
58.5628
50.6794
49.6658
43.7648
40.5119
35.8311
31.8896
27.6802
23.7222
19.8548
16.3278
13.378
11.3256
10.0141
9.08326
8.39516
7.20334
8.18727
23.1686
19.069
21.1084
16.7598
18.4185
15.4267
15.6285
14.0845
13.6027
12.7864
12.3053
11.9351
11.8523
12.2105
13.174
14.7985
16.3967
18.209
19.5792
22.8987
35.7699
35.1547
38.8543
37.2633
41.0178
40.4693
42.9968
43.809
45.5748
47.0261
48.656
50.3094
52.0108
53.8011
55.6667
57.735
59.8326
62.3922
64.6908
68.154
67.6407
68.8384
72.2295
71.635
75.2505
75.4162
77.9612
79.1823
81.0419
82.7009
84.4208
86.1594
87.8931
89.636
91.3659
93.1497
94.9247
96.9227
98.5744
100.601
93.6888
95.3681
97.9023
97.7831
100.773
101.125
103.36
104.403
105.958
107.118
108.144
108.847
109.217
109.303
109.351
109.679
110.587
111.919
113.049
113.902
109.764
110.692
111.892
111.43
113.099
112.705
113.838
113.749
114.15
113.969
113.764
113.329
112.85
112.344
111.889
111.472
111.05
110.349
110.212
109.19
114.094
111.886
112.111
110.127
110.428
108.854
108.777
107.588
107.024
105.882
104.733
103.054
100.909
98.1196
94.87
91.416
88.555
87.5056
87.0117
82.9803
65.8685
59.9839
58.2462
53.6343
51.1816
46.7955
43.5488
39.2114
35.4792
31.4521
28.0357
24.9434
22.5376
20.7597
19.7764
19.4395
19.6054
20.0389
19.351
18.4535
22.924
18.1394
17.3477
14.2498
12.9731
10.228
8.65163
6.32094
4.71533
3.09154
2.04743
1.29972
0.908918
0.75659
0.813833
1.05785
1.46477
2.22823
3.03474
6.10529
23.191
22.8817
23.7797
23.2422
24.0916
23.8697
24.4869
24.5505
24.9463
25.2118
25.6215
26.1108
26.7457
27.593
28.6873
30.2703
32.2781
35.2772
37.6901
41.1301
46.5449
48.6169
51.0168
52.4623
54.5195
55.9056
57.7211
59.2604
60.9191
62.5279
64.1513
65.7967
67.4653
69.1962
70.9548
72.8157
74.62
76.5596
78.0001
80.1394
65.0968
67.6041
70.0652
72.0115
74.0364
75.5504
77.2541
78.7142
80.1839
81.5707
82.9075
84.2059
85.4608
86.6974
87.8913
89.1099
90.2497
91.5305
92.4511
93.7801
86.8215
89.0705
90.461
91.9098
93.2786
94.3681
95.6061
96.6681
97.7622
98.8002
99.8141
100.804
101.773
102.741
103.727
104.797
105.894
107.165
108.094
109.325
104.902
106.692
107.117
108.174
108.88
109.565
110.293
110.852
111.372
111.747
112.012
112.174
112.303
112.5
112.936
113.654
114.675
115.753
116.606
117.225
125.567
125.597
124.14
123.96
123.614
123.44
123.154
122.878
122.667
122.467
122.292
122.104
121.853
121.371
120.554
119.442
118.454
117.51
117.396
116.357
111.88
111.79
110.361
109.884
109.055
108.369
107.936
107.688
107.399
106.873
105.968
104.438
102.133
99.051
95.6184
92.5948
90.4712
89.2821
89.3262
87.774
136.64
134.674
133.254
131.293
128.575
125.723
122.291
118.399
114.064
109.899
105.892
102.12
98.6791
95.6765
93.2127
91.2277
89.3664
87.4862
86.1049
83.7934
)
;

boundaryField
{
    outletWall
    {
        type            fixedValue;
        value           uniform 0;
    }
    fineWalls
    {
        type            zeroGradient;
    }
    fineFrontAndBack
    {
        type            zeroGradient;
    }
    fineplugLeft
    {
        type            cyclicAMI;
        value           nonuniform List<scalar> 
20
(
68.7625
70.582
70.3047
70.8516
71.6999
73.1437
75.2767
77.9724
80.9843
84.1675
87.507
90.9003
94.2218
104.902
104.698
105.567
106.423
105.784
103.811
102.89
)
;
    }
    fineplugRight
    {
        type            cyclicAMI;
        value           nonuniform List<scalar> 
20
(
72.4134
74.4577
74.1138
74.7103
75.5839
77.1044
79.3167
82.0848
85.1825
88.4706
91.9256
95.5219
99.0137
108.976
110.165
111.273
112.24
111.58
109.334
107.899
)
;
    }
    inletOutletLeft
    {
        type            cyclicAMI;
        value           nonuniform List<scalar> 
20
(
68.7625
70.582
70.3047
70.8516
71.6999
73.1437
75.2767
77.9724
80.9843
84.1675
87.507
90.9003
94.2218
104.902
104.698
105.567
106.423
105.784
103.811
102.89
)
;
    }
    inletLeft
    {
        type            zeroGradient;
    }
    inletWallsLeft
    {
        type            zeroGradient;
    }
    inletFacesLeft
    {
        type            zeroGradient;
    }
    inletOutletRight
    {
        type            cyclicAMI;
        value           nonuniform List<scalar> 
20
(
72.4134
74.4577
74.1138
74.7103
75.5839
77.1044
79.3167
82.0848
85.1825
88.4706
91.9256
95.5219
99.0137
108.976
110.165
111.273
112.24
111.58
109.334
107.899
)
;
    }
    inletRight
    {
        type            zeroGradient;
    }
    inletWallsRight
    {
        type            zeroGradient;
    }
    inletFacesRight
    {
        type            zeroGradient;
    }
}


// ************************************************************************* //
