/*--------------------------------*- C++ -*----------------------------------*\
| =========                 |                                                 |
| \\      /  F ield         | OpenFOAM: The Open Source CFD Toolbox           |
|  \\    /   O peration     | Version:  4.1                                   |
|   \\  /    A nd           | Web:      www.OpenFOAM.org                      |
|    \\/     M anipulation  |                                                 |
\*---------------------------------------------------------------------------*/
FoamFile
{
    version     2.0;
    format      ascii;
    class       surfaceScalarField;
    location    "21";
    object      phi;
}
// * * * * * * * * * * * * * * * * * * * * * * * * * * * * * * * * * * * * * //

dimensions      [0 3 -1 0 0 0 0];

internalField   nonuniform List<scalar> 
2360
(
-6574.16
-3651.21
-2922.95
-3651.21
-3651.21
-793.395
-2857.81
-793.391
-793.391
-793.387
2082.43
-2875.81
2082.43
2082.43
5146.81
-3064.38
5146.81
5146.81
8995.47
-3848.66
8995.47
8995.47
14161.7
-5166.27
14161.7
14161.7
14816.4
16156.2
17748.7
19392.8
20982.9
22480.7
17962.9
5931.38
19264.4
20456.7
21534.8
22493.3
23324.3
24017.2
24572.6
25025.6
25442.8
25913.2
26506.8
27190.6
27730.2
16730.9
10999.4
16730.9
16730.9
16730.9
4697.71
12033.2
4697.71
4697.72
4697.72
-565.83
5263.55
-565.821
-565.815
-6155.45
5589.63
-6155.44
-6155.44
-6155.44
-18164
12008.5
-18164
-18164
-18164
-29634.9
11470.9
-29072
-28357.5
-27734.1
-27242.6
-26814.6
-26357.7
-25800.4
-25107.3
-24279.5
-23327.3
-22258.2
-21077
-19787.2
-24528
6145.14
-23042.8
-21461.6
-19829.3
-18253.7
-16929.3
-16280
-16280
-16280
-13122.9
-3157.17
-13122.9
-13122.9
-9183.75
-3939.12
-9183.75
-9183.75
-4583.62
-4600.13
-4583.62
-4583.62
-7.56694
-4576.05
-7.56483
-7.56295
-7.56197
4705.87
-4713.43
4705.87
4705.87
9415.79
-4709.92
988.627
-971.361
1266
-231.239
1580.56
-1948.42
2023.73
-3384
2307.55
-1790.58
2204.14
2345.13
1602.15
5124.38
807.357
8733.38
224.406
15183
-217.015
17390.5
-496.782
17513.1
-558.916
18018.6
-171.771
17238.1
1391.18
7902.36
3230.93
-9064.9
4981.59
-11814.8
5520.73
-5533.45
5090.36
4085.59
8263.79
1752.17
-1142.36
2105.63
-584.7
2472.4
-2315.19
2984.63
-3896.23
3224.35
-2030.3
2798.92
2770.56
1804.35
6118.95
780.346
9757.38
128.96
15834.4
-357.977
17877.4
-699.407
17854.5
-852.352
18171.5
-366.281
16752
2090.48
5445.59
4456.77
-11431.2
6784.89
-14142.9
7709.95
-6458.52
6359.46
5436.09
9909.81
2113.54
-1347.85
2551.91
-1023.06
3060.86
-2824.14
3644.66
-4480.03
3876.86
-2262.5
3373.5
3273.91
2136.59
7355.86
781.172
11112.8
-23.7615
16639.3
-572.991
18426.6
-1012.14
18293.7
-1298.57
18458
-787.103
16240.5
2031.03
2627.46
4201.19
-13601.4
6161.04
-16102.7
7734
-8031.48
7018.81
6151.28
12352.6
2284.7
-1598.2
2858.05
-1596.42
3572.35
-3538.44
4191.37
-5099.05
4295.18
-2366.31
3697.76
3871.33
2348.79
8704.83
736.235
12725.4
-239.073
17614.6
-855.572
19043.1
-1415.44
18853.5
-1890.82
18933.3
-1477.78
15827.5
1103.88
45.8028
1802.75
-14300.2
2594.84
-16894.8
4838.46
-10275.1
5976.9
5012.84
13729.3
2229.95
-1926.03
3000.21
-2366.68
3883.56
-4421.79
4349.93
-5565.42
4208.56
-2224.94
3551.67
4528.23
2224.96
10031.5
535.842
14414.5
-541.206
18691.7
-1215.4
19717.3
-1909.81
19547.9
-2568.83
19592.4
-2253.78
15512.4
-975.757
-1232.22
-2380.24
-12895.7
-2381.81
-16893.2
394.757
-13051.7
2940.46
2467.14
12730.7
1933.3
-2420.04
2954.2
-3387.58
3818.99
-5286.58
3879.34
-5625.76
3412.76
-1758.36
2801.49
5139.49
1668.4
11164.6
110.555
15972.3
-945.272
19747.5
-1649.84
20421.9
-2470.36
20368.5
-3291.93
20413.9
-3392.57
15613.1
-4239.01
-385.776
-6174.32
-10960.4
-6506.33
-16561.2
-4021.46
-15536.5
-612.961
-941.361
8960.54
1499.8
-3130.43
2667.53
-4555.3
3184.95
-5804
2735.22
-5176.03
2067.12
-1090.26
1635.85
5570.76
760.893
12039.6
-541.226
17274.4
-1448.9
20655.2
-2149.39
21122.4
-3064.19
21283.3
-4026.8
21376.5
-4732.63
16318.9
-6650.37
1531.96
-8743.11
-8867.69
-10094.3
-15210
-9026
-16604.9
-4758.73
-5208.63
10346.9
1079.74
-3875.76
2018.6
-5494.16
1953.44
-5738.84
1266.25
-4488.85
617.664
-441.672
284.191
5904.23
-424.327
12748.1
-1363.64
18213.7
-2029.88
21321.4
-2697.27
21789.8
-3661.37
22247.4
-4719.01
22434.2
-5772.95
17372.8
-7872.89
3631.9
-10126.5
-6614.12
-12723.7
-12612.8
-14425.1
-14903.5
-13041.1
-6592.62
8776.81
562.676
-4411.73
961.222
-5892.71
436.122
-5213.74
-293.317
-3759.41
-1033.73
298.739
-1408.55
6279.05
-1801.45
13141
-2255.86
18668.2
-2649.96
21715.5
-3272.79
22412.6
-4245.93
23220.5
-5334.45
23522.7
-6553.94
18592.3
-8932.14
6010.11
-11200.4
-4345.88
-13337.1
-10476.1
-15437.1
-12803.5
-15925.2
-6104.6
4860.17
-212.05
-4655.04
-312.815
-5791.94
-1029.06
-4497.5
-1952.99
-2835.48
-2707.09
1052.84
-3046.99
6618.96
-3087.95
13182
-3104.93
18685.1
-3273.4
21884
-3858.72
22997.9
-4808.84
24170.6
-5883.03
24596.9
-7451.69
20161
-10593.2
9151.62
-12532.3
-2406.8
-12995.2
-10013.2
-12686.6
-13112
-10797
-7994.22
-347.237
-1155.88
-4649.29
-1550.09
-5397.74
-2299.47
-3748.12
-3217.59
-1917.35
-3945.86
1781.1
-4249.04
6922.14
-4100.04
13033
-3858.5
18443.6
-3890.4
21915.9
-4448.64
23556.2
-5340.88
25062.9
-6351.42
25607.4
-8087.14
21896.7
-10536.8
11601.2
-10474.6
-2469
-11128.3
-9359.43
-13594.7
-10645.6
-12127.8
-9461.09
-7211.5
-2153.17
-4475.32
-2680.2
-4870.7
-3381.78
-3046.54
-4176.75
-1122.38
-4798.12
2402.47
-5052.94
7176.97
-4859.57
12839.6
-4535.99
18120
-4516.36
21896.3
-5045.67
24085.5
-5842.01
25859.2
-6706.44
26471.9
-7869.14
23059.4
-7075.8
10807.9
-3244.63
-6300.17
-3717.31
-8886.75
-9811.03
-4551.86
-14248.4
-5023.77
-9426.7
-3144.23
-4194.81
-3702.32
-4312.61
-4318.22
-2430.64
-4969.51
-471.09
-5460.16
2893.12
-5658.56
7375.36
-5486.43
12667.5
-5188.72
17822.3
-5173.43
21881
-5659.12
24571.2
-6346.42
26546.5
-7073.97
27199.4
-7549.38
23534.8
-4656.48
7915
-1170.1
-9786.55
-360.478
-9696.37
-1822.31
-3090.03
-6719.34
-126.736
-5146.67
-4112.86
-3847.22
-4644.42
-3781.05
-5163.75
-1911.31
-5683.68
48.8331
-6061.34
3270.78
-6212.67
7526.7
-6081.12
12535.9
-5851.81
17593
-5860.19
21889.4
-6287.35
24998.3
-6905.85
27165
-7547.53
27841.1
-7175.42
23162.7
-2718.98
3458.55
-766.531
-11739
-1586.87
-8876.03
609.818
-5286.72
1738.13
-1255.05
2522.83
-5073.87
-3461.64
-5541.63
-3313.28
-5966.95
-1486
-6377.76
459.642
-6658.09
3551.11
-6772.97
7641.57
-6683.55
12446.5
-6526.44
17435.9
-6557.85
21920.8
-6940.47
25380.9
-7578.6
27803.1
-8122.27
28384.8
-6639.62
21680.1
-1588.64
-1592.43
-337.584
-12990
-901.835
-8311.78
389.557
-6578.11
2701.71
-3567.2
58.2711
-6070.1
-3059.02
-6427.79
-2955.59
-6723.96
-1189.82
-7055.33
791.006
-7268.09
3763.87
-7351.85
7725.34
-7291.85
12386.5
-7185.46
17329.5
-7230.04
21965.3
-7618.47
25769.4
-8364.02
28548.7
-8630.43
28651.2
-5566.62
18616.2
-1082.64
-6076.41
-590.919
-13481.8
-416.32
-8486.38
909.454
-7903.89
2399.75
-5057.5
-1390.64
-7167.11
-2650.01
-7374.4
-2748.29
-7507.44
-1056.79
-7735.74
1019.31
-7873.57
3901.71
-7922.75
7774.51
-7870.18
12333.9
-7797.05
17256.4
-7882.21
22050.5
-8364.27
26251.4
-9187.19
29371.6
-8836.45
28300.4
-4210.04
13989.8
-728.112
-9558.34
-824.571
-13385.3
-49.5663
-9261.38
1147.78
-9101.23
2162.41
-6072.14
-2292.61
-8405.7
-2344.01
-8353.83
-2800.16
-8250.29
-1160.33
-8432.47
1201.49
-8535.55
4004.79
-8553.08
7792.04
-8494.14
12275
-8430.97
17193.2
-8550.97
22170.5
-9114.33
26814.8
-9848.06
30105.3
-8680.97
27133.3
-3342.88
8651.74
-583.792
-12317.4
-699.279
-13269.8
252.963
-10213.6
1358.15
-10206.4
2187.81
-6901.8
-2980.61
-9722.06
-1437.93
-9963.21
-2559
-9201.88
-1921.67
-8886.9
886.511
-8897.31
4015.2
-8895.71
7790.44
-8845.9
12225.2
-8826.18
17173.5
-9073.82
22418.1
-9809.74
27550.7
-10282.9
30578.5
-7982.96
24833.4
-2785.65
3454.44
-770.588
-14332.5
-478.26
-13562.2
445.594
-11137.5
1504.02
-11264.8
2326.89
-7724.67
-3511.53
-9975.62
-11584.8
-11006.3
-10333.2
-10035.7
-9859.11
-9760.45
-9815.58
-10157.2
-10669
-10155.8
-6643.47
-2136.02
-899.534
-351.448
562.647
1591.07
2444.77
208.727
-863.418
615.284
-1746.3
895.7
-1872.96
998.414
-1746.82
983.341
-1575.04
920.445
-1434.87
816.877
-1310.05
703.909
-1188.5
574.027
-1062.46
426.802
-930.901
262.189
-793.913
81.1898
-650.025
-110.286
-501.439
-290.91
-374.779
-422.113
-321.744
-462.785
-376.591
-395.495
-537.713
-246.003
-743.058
-80.1666
-849.63
-619.834
179.045
-1042.47
347.686
-1914.94
286.381
-1811.66
96.3248
-1556.77
-114.197
-1364.52
-305.79
-1243.28
-469.762
-1146.08
-617.485
-1040.78
-752.105
-927.85
-874.446
-808.564
-981.804
-686.56
-1065.58
-566.257
-1104.83
-462.191
-1077.73
-401.88
-976.108
-423.37
-801.993
-550.709
-584.546
-755.161
-365.561
-962.044
-175.663
-1039.53
-795.497
-61.7782
-980.696
-66.1822
-1910.54
-77.1387
-1800.71
-61.3334
-1572.58
-23.903
-1401.96
4.843
-1272.03
24.3231
-1165.57
49.2225
-1065.69
88.2436
-966.88
144.955
-865.288
220.59
-762.205
314.37
-660.049
420.083
-567.913
523.336
-505.142
595.205
-495.246
599.228
-554.737
513.406
-669.342
348.481
-797.121
153.862
-844.913
-641.635
-138.778
-841.92
-136.822
-1912.5
-25.5126
-1912.02
80.2311
-1678.33
160.677
-1482.41
226.305
-1337.66
292.187
-1231.45
363.925
-1137.43
445.753
-1048.71
541.622
-961.16
653.363
-873.949
779.029
-785.718
906.676
-695.561
1010.76
-609.225
1055.57
-540.063
1006.04
-505.208
849.386
-512.687
596.122
-543.857
299.866
-548.658
-341.769
-106.591
-735.336
-98.5119
-1920.58
-6.67343
-2003.86
71.9479
-1756.96
142.046
-1552.51
211.858
-1407.48
281.279
-1300.88
347.453
-1203.61
409.304
-1110.57
467.353
-1019.22
523.27
-929.87
580.151
-842.605
641.343
-756.756
703.292
-671.178
750.106
-586.878
752.426
-507.531
680.921
-441.181
518.571
-381.507
279.375
-309.461
-62.3938
47.0149
-782.352
67.7939
-1941.36
119.925
-2056
175.17
-1812.2
235.745
-1613.09
299.819
-1471.56
364.862
-1365.92
426.74
-1265.49
482.72
-1166.55
529.601
-1066.1
564.653
-964.922
586.004
-863.957
593.656
-764.408
589.004
-666.526
572.478
-570.351
538.078
-473.131
472.207
-375.309
356.579
-265.878
179.273
-132.152
116.879
279.402
-1061.76
377.185
-2039.15
394.289
-2073.1
417.792
-1835.71
470.905
-1666.2
537.335
-1537.99
610.924
-1439.51
683.951
-1338.52
752.511
-1235.11
809.896
-1123.49
851.039
-1006.07
871.373
-884.292
867.56
-760.595
836.935
-635.903
777.735
-511.152
688.02
-383.417
565.987
-253.277
408.248
-108.139
204.733
71.3616
321.612
434.187
-1495.94
550.413
-2155.37
513.507
-2036.19
507.627
-1829.83
557.78
-1716.35
629.395
-1609.6
716.573
-1526.69
805.312
-1427.26
889.022
-1318.82
955.508
-1189.97
999.926
-1050.48
1018.82
-903.185
1010.23
-752.001
968.749
-594.424
884.814
-427.218
743.963
-242.566
522.571
-31.8882
316.578
97.8513
140.146
247.791
461.758
333.528
-1829.47
296.983
-2118.83
196.706
-1935.92
155.035
-1788.15
155.489
-1716.81
169.86
-1623.97
196.689
-1553.52
221.466
-1452.03
234.558
-1331.91
223.511
-1178.92
187.862
-1014.84
130.138
-845.463
54.2654
-676.133
-38.0028
-502.162
-135.695
-329.535
-207.56
-170.72
-200.808
-38.656
-225.531
122.565
-208.699
230.952
253.059
31.5446
-1861.01
-121.451
-1965.83
-244.155
-1813.21
-346.757
-1685.55
-444.761
-1618.8
-544.287
-1524.44
-644.151
-1453.65
-746.857
-1349.32
-855.76
-1223.01
-973.216
-1061.46
-1099.01
-889.04
-1229.63
-714.845
-1358.84
-546.921
-1474.48
-386.522
-1556.72
-247.304
-1571
-156.443
-1472.71
-136.945
-1161.03
-189.117
-622.917
-307.161
-369.858
-147.897
-1713.12
-240.666
-1873.06
-335.121
-1718.76
-465.493
-1555.18
-605.644
-1478.65
-766.851
-1363.24
-940.988
-1279.52
-1120.66
-1169.65
-1291.16
-1052.51
-1442.52
-910.1
-1572.96
-758.606
-1680.9
-606.896
-1756.66
-471.168
-1773.89
-369.288
-1697.23
-323.964
-1506.72
-346.946
-1190.75
-452.918
-751.75
-628.119
-290.2
-768.712
-660.058
-51.8843
-1661.23
-26.2465
-1898.69
-18.8919
-1726.11
-41.6087
-1532.46
-68.1572
-1452.1
-110.195
-1321.19
-162.246
-1227.46
-216.334
-1115.55
-255.671
-1013.17
-262.104
-903.66
-227.198
-793.506
-150.076
-684.01
-37.2682
-583.967
99.8616
-506.404
242.328
-466.418
367.363
-471.971
433.101
-518.652
387.675
-582.689
216.928
-597.962
-443.13
55.5501
-1716.78
101.109
-1944.25
150.491
-1775.49
195.841
-1577.8
242.464
-1498.72
289.593
-1368.32
335.732
-1273.6
384.724
-1164.54
438.329
-1066.77
505.6
-970.929
591.857
-879.761
699.49
-791.642
820.958
-705.432
935.748
-621.193
1009.58
-540.245
1004.41
-466.801
891.544
-405.784
661.106
-352.248
345.222
-282.074
-97.9077
122.042
-1838.81
146.011
-1968.21
193.911
-1823.38
249.911
-1633.8
312.623
-1561.43
374.56
-1430.25
440.546
-1339.58
508.474
-1232.47
578.171
-1136.47
646.503
-1039.26
710.788
-944.042
767.586
-848.435
813.234
-751.077
841.983
-649.939
846.028
-544.286
810.989
-431.759
717.804
-312.596
543.989
-178.43
293.468
-31.5469
195.56
138.959
-1977.77
128.693
-1957.95
170.219
-1864.91
220.897
-1684.48
281.23
-1621.76
341.494
-1490.52
408.807
-1406.89
480.014
-1303.67
558.715
-1215.17
642.867
-1123.41
730.61
-1031.78
813.914
-931.736
879.263
-816.424
907.2
-677.873
880.631
-517.714
797.895
-349.02
667.285
-181.984
463.424
25.4347
236.723
195.159
432.283
80.7367
-2058.5
44.3659
-1921.57
60.9612
-1881.5
87.5082
-1711.02
119.446
-1653.69
160.03
-1531.09
207.112
-1453.97
263.155
-1359.71
328.429
-1280.44
402.355
-1197.33
481.615
-1111.04
554.493
-1004.61
597.378
-859.307
576.424
-656.915
472.129
-413.417
332.664
-209.552
237.272
-86.5883
163.489
99.2216
46.4419
312.21
478.725
-38.4543
-2020.05
-117.654
-1842.37
-169.599
-1829.55
-207.321
-1673.29
-244.048
-1616.96
-264.616
-1510.52
-281.437
-1437.15
-286.809
-1354.34
-285.095
-1282.15
-274.862
-1207.56
-259.559
-1126.34
-245.171
-1019
-243.164
-861.31
-262.184
-637.892
-294.829
-380.765
-320.989
-183.387
-334.033
-73.5358
-313.833
79.0279
-253.379
251.761
225.346
-184.102
-1835.95
-391.298
-1635.17
-563.277
-1657.57
-701.291
-1535.28
-829.842
-1488.41
-931.705
-1408.66
-1022.78
-1346.07
-1097.69
-1279.43
-1162.27
-1217.56
-1214.83
-1155
-1253.13
-1088.04
-1265.77
-1006.36
-1230.22
-896.866
-1115.65
-752.457
-909.913
-586.501
-669.456
-423.843
-478.183
-264.808
-307.478
-91.6748
-122.302
66.5862
103.044
-198.38
-1637.57
-452.198
-1381.35
-719.338
-1390.43
-949.611
-1305.01
-1172.67
-1265.35
-1367.15
-1214.19
-1542
-1171.21
-1693.41
-1128.02
-1823.76
-1087.21
-1931.46
-1047.29
-2011.76
-1007.74
-2051.28
-966.832
-2025.8
-922.345
-1907.5
-870.764
-1685.89
-808.105
-1376.76
-732.978
-999.582
-641.984
-576.598
-514.658
-183.786
-326.225
-80.7416
-662.565
-1068.92
-1484.35
-1814.36
-2104.7
-2343.89
-2540.1
-2693.12
-2805.33
-2877.62
-2910.37
-2902.2
-2849.55
-2745.31
-2578.41
-2336.39
-2003.38
-1543.03
-894.258
-662.576
1637.57
-1068.93
1381.35
-1484.37
1390.43
-1814.37
1305
-2104.71
1265.34
-2343.89
1214.18
-2540.09
1171.2
-2693.09
1128
-2805.28
1087.19
-2877.56
1047.27
-2910.29
1007.73
-2902.1
966.816
-2849.44
922.339
-2745.21
870.77
-2578.34
808.127
-2336.36
733.018
-2003.4
642.036
-1543.11
514.715
-894.363
326.251
80.6373
-198.329
1835.9
-452.096
1635.12
-719.184
1657.52
-949.404
1535.22
-1172.41
1488.35
-1366.84
1408.6
-1541.64
1346
-1693
1279.36
-1823.3
1217.49
-1930.94
1154.92
-2011.17
1087.95
-2050.61
1006.25
-2025.03
896.762
-1906.68
752.418
-1685.16
586.605
-1376.21
424.068
-999.216
265.041
-576.352
91.8497
-183.616
-66.4872
-102.979
-184.101
2020
-391.32
1842.34
-563.314
1829.51
-701.355
1673.26
-829.933
1616.92
-931.834
1510.49
-1022.95
1437.12
-1097.91
1354.31
-1162.55
1282.13
-1215.16
1207.53
-1253.5
1126.29
-1266.12
1018.87
-1230.45
861.089
-1115.66
637.634
-909.734
380.672
-669.301
183.633
-477.969
73.7074
-306.941
-79.1806
-121.735
-251.696
-224.714
-38.5417
2058.54
-117.794
1921.59
-169.808
1881.52
-207.61
1711.06
-244.423
1653.74
-265.084
1531.15
-282.006
1454.04
-287.49
1359.8
-285.9
1280.54
-275.806
1197.44
-260.659
1111.14
-246.438
1004.65
-244.573
859.223
-263.624
656.683
-296.132
413.177
-322.101
209.599
-335.02
86.6229
-314.649
-99.5547
-253.944
-312.404
-478.658
80.6371
1977.9
44.2094
1958.01
60.7324
1865
87.2052
1684.59
119.062
1621.88
159.57
1490.64
206.573
1407.03
262.538
1303.83
327.733
1215.34
401.574
1123.59
480.734
1031.98
553.476
931.905
596.177
816.521
575.012
677.845
470.649
517.538
331.508
348.736
236.533
181.595
162.879
-25.9056
46.0151
-195.543
-432.643
138.99
1838.91
128.662
1968.34
170.161
1823.5
220.823
1633.92
281.147
1561.55
341.408
1430.38
408.724
1339.72
479.944
1232.61
558.669
1136.62
642.857
1039.41
730.648
944.185
813.996
848.556
879.36
751.156
907.251
649.953
880.57
544.219
797.708
431.597
666.974
312.328
463.029
178.038
236.483
31.0014
-196.16
122.203
1716.71
146.115
1944.43
194
1775.61
250.002
1577.92
312.736
1498.82
374.674
1368.44
440.671
1273.72
508.596
1164.68
578.299
1066.91
646.633
971.071
710.918
879.9
767.702
791.771
813.309
705.548
841.957
621.305
845.818
540.357
810.59
466.824
717.324
405.592
543.574
351.787
293.199
281.374
97.039
55.7302
1660.98
101.252
1898.91
150.643
1726.22
196.067
1532.5
242.778
1452.11
290.026
1321.2
336.313
1227.43
385.475
1115.52
439.237
1013.15
506.612
903.697
592.885
793.627
700.415
684.241
821.62
584.343
936.004
506.921
1009.48
466.883
1004.04
472.266
891.198
518.429
660.909
582.075
345.16
597.122
442.199
-51.5141
1712.49
-25.6251
1873.02
-17.9645
1718.56
-40.325
1554.86
-66.5155
1478.3
-108.154
1362.83
-159.786
1279.06
-213.428
1169.16
-252.324
1052.04
-258.336
909.708
-223.039
758.327
-145.576
606.775
-32.4936
471.259
104.793
369.629
247.324
324.348
372.133
347.454
436.909
453.653
389.996
628.988
217.834
769.283
660.033
-148.087
1860.58
-240.547
1965.48
-334.846
1812.86
-465.161
1685.17
-605.271
1618.41
-766.478
1524.04
-940.62
1453.2
-1120.28
1348.82
-1290.69
1222.45
-1441.87
1060.89
-1572.02
888.475
-1679.55
714.311
-1754.71
546.42
-1771.21
386.125
-1694.02
247.159
-1503.29
156.726
-1187.42
137.777
-749.029
190.601
-288.801
309.056
371.231
30.8468
1829.73
-122.176
2118.5
-244.926
1935.61
-347.717
1787.96
-445.98
1716.67
-545.828
1623.89
-646.065
1553.44
-749.165
1451.92
-858.438
1331.72
-976.22
1178.67
-1102.29
1014.55
-1233.14
845.161
-1362.53
675.803
-1478.26
501.861
-1560.48
329.383
-1574.19
170.43
-1473.93
37.52
-1161.31
-122.018
-622.4
-229.849
-251.169
333.138
1496.59
296.224
2155.41
195.717
2036.12
153.782
1829.9
153.928
1716.52
167.98
1609.84
194.462
1526.96
218.867
1427.52
231.564
1319.03
220.139
1190.1
184.167
1050.52
126.196
903.135
50.179
751.824
-42.0255
594.07
-139.17
426.536
-210.379
241.653
-204.512
31.667
-228.558
-97.9636
-210.265
-248.137
-461.433
434.728
1061.87
551.074
2039.07
514.046
2073.14
508.077
1835.87
558.179
1666.42
629.765
1538.25
716.932
1439.79
805.646
1338.8
889.302
1235.37
955.688
1123.71
999.981
1006.23
1018.74
884.377
1009.99
760.577
968.29
635.767
883.94
510.887
742.558
383.036
521.383
252.844
315.778
107.644
139.551
-71.9068
-321.883
280.455
781.413
378.625
1940.9
395.421
2056.35
418.723
1812.57
471.81
1613.34
538.243
1471.82
611.812
1366.23
684.794
1265.82
753.279
1166.89
810.575
1066.42
851.635
965.173
871.894
864.12
868.014
764.459
837.322
666.461
777.997
570.213
688.1
472.935
565.937
375.008
408.172
265.411
204.684
131.584
-117.199
48.4944
732.921
69.8416
1919.55
121.563
2004.63
176.085
1758.04
236.206
1553.22
299.983
1408.04
364.758
1301.45
426.364
1204.22
482.074
1111.18
528.702
1019.79
563.448
930.428
584.353
843.218
591.359
757.455
585.828
671.994
568.369
587.674
533.437
507.868
467.805
440.641
353.288
379.928
177.602
307.272
60.4027
-103.882
836.805
-95.6917
1911.36
-3.45696
1912.4
74.9084
1679.68
143.831
1484.3
212.301
1339.58
280.468
1233.29
345.394
1139.3
405.931
1050.65
462.384
963.34
516.306
876.507
571.096
788.43
629.942
698.608
689.548
612.39
735.399
541.823
738.789
504.478
669.954
509.475
511.213
538.669
275.527
542.958
335.929
-131.781
968.587
-131.347
1910.93
-24.1362
1805.19
81.221
1574.33
162.777
1402.74
228.571
1273.78
293.878
1167.98
364.545
1068.63
444.427
970.766
537.006
870.761
644.364
769.15
764.844
667.951
887.808
575.646
989.58
510.619
1034.52
496.888
988.542
550.452
837.248
660.771
589.624
786.294
297.881
834.702
633.811
-50.958
1019.55
-47.6606
1907.64
-60.7326
1818.26
-49.9439
1563.54
-13.2134
1366.01
19.9581
1240.61
44.5044
1143.44
73.2808
1039.85
114.87
929.177
173.666
811.966
251.553
691.263
347.275
572.23
455.148
467.773
560.51
405.257
631.573
425.826
629.892
552.133
535.01
755.653
361.031
960.273
159.615
1036.12
793.426
183.483
836.063
366.948
1724.17
321.213
1863.99
137.096
1747.65
-72.9254
1576.03
-262.671
1430.36
-422.51
1303.27
-564.489
1181.83
-692.035
1056.72
-806.603
926.535
-906.38
791.04
-982.931
648.781
-1016.12
500.962
-984.756
373.893
-882.808
323.878
-716.72
386.045
-516.733
555.667
-322.071
765.611
-156.942
870.988
636.484
186.799
586.586
874.941
990.37
985.185
930.367
829.288
721.309
596.783
454.256
293.108
114.043
-78.0607
-261.475
-394.478
-436.404
-372.33
-230.04
-73.5737
)
;

boundaryField
{
    outletWall
    {
        type            calculated;
        value           nonuniform List<scalar> 
60
(
9415.79
-7883.34
-3655.22
4994.31
10064.1
7225.16
-9465.31
-17625.2
-17956.5
-17233.3
-16949
-14600.1
-7938.59
-4522.38
-2241.73
1506.76
2940.84
1633.86
-46.1326
847.936
8060.28
8815.97
8099.71
6758.09
5667.48
4688.28
3765.28
2863.71
1979.19
1150.13
455.364
-26.7105
-334.411
-789.412
-1439.29
-1902.12
-2034.35
-1908.06
-1581.17
-865.202
6574.16
-3989.71
-8578.37
-12293.3
-12051.6
-14110.2
-15569
-1053.01
21321.1
30065.2
28062.6
22759.7
17228.6
12126.5
7613.89
3717.63
213.481
-2500.2
-949.831
477.406
)
;
    }
    fineWalls
    {
        type            calculated;
        value           uniform 0;
    }
    fineFrontAndBack
    {
        type            calculated;
        value           nonuniform List<scalar> 
960
(
-5.08568e-12
-1.41714e-11
-2.88937e-12
-2.98987e-12
-1.90395e-11
-4.10935e-12
-3.21429e-12
-3.2412e-12
-2.172e-11
-4.38937e-12
-5.8268e-12
-1.69205e-11
-4.10433e-12
-8.31393e-12
-5.02104e-11
-9.36207e-12
-6.69378e-12
-1.54124e-11
3.41447e-13
1.61962e-12
3.40852e-13
2.0855e-13
2.74015e-13
4.01093e-13
4.5522e-13
4.28771e-13
1.11853e-11
3.90786e-13
4.25435e-13
4.66561e-13
5.04952e-13
5.27969e-13
5.05204e-13
4.3748e-13
3.31986e-13
1.67226e-13
-9.01976e-14
-4.25969e-13
-7.11306e-13
-9.70916e-13
-3.21822e-11
-5.64585e-12
-5.60515e-12
-5.23835e-12
-1.34204e-11
7.10092e-13
1.67571e-12
2.28821e-12
3.56672e-11
-1.74576e-12
1.80056e-12
2.34844e-12
1.20852e-12
1.83586e-12
2.62347e-12
2.5028e-11
5.44412e-12
5.83968e-12
5.97545e-12
3.5857e-11
1.16988e-12
9.66053e-13
7.15464e-13
4.12849e-13
1.8248e-13
3.95602e-14
-4.14271e-14
-8.22937e-14
-7.36212e-14
-2.18691e-14
4.57885e-14
1.00851e-13
1.39277e-13
-7.53202e-13
-2.70351e-15
-5.96929e-14
-2.07643e-14
1.17073e-13
2.20351e-13
1.23654e-13
8.89989e-13
9.33883e-13
2.74625e-12
2.99806e-13
-5.76604e-13
-8.28436e-12
-2.20968e-12
-4.0453e-12
-2.99312e-11
-4.37098e-12
-2.29837e-12
-6.92698e-12
1.415e-12
1.54482e-12
1.68929e-12
-9.5676e-12
-1.63878e-12
-3.2421e-13
-7.39231e-12
7.96601e-13
1.24872e-11
1.26954e-11
1.17751e-11
1.15829e-11
7.58488e-12
-3.12472e-13
-1.12895e-11
-1.64568e-11
-1.53353e-11
-1.44936e-11
-1.37042e-11
-1.09944e-11
-1.51747e-11
-2.28447e-11
-2.79815e-11
-3.08221e-11
-3.25143e-11
-2.93528e-11
-3.60144e-11
1.33327e-11
1.32818e-11
1.20598e-11
1.1453e-11
7.34121e-12
2.07613e-12
-9.04192e-12
-1.61405e-11
-1.53901e-11
-1.44958e-11
-1.36391e-11
-1.10294e-11
-1.52825e-11
-2.26205e-11
-2.68406e-11
-2.6094e-11
-2.59556e-11
-2.81259e-11
-3.61376e-11
1.29851e-11
1.29989e-11
1.19427e-11
1.02802e-11
5.17727e-12
1.42684e-12
-7.796e-12
-1.56963e-11
-1.54409e-11
-1.44945e-11
-1.35273e-11
-1.10995e-11
-1.5526e-11
-2.25675e-11
-2.19894e-11
-1.38641e-11
-9.85554e-12
-2.00654e-11
-3.46469e-11
1.30892e-11
1.30316e-11
1.18421e-11
8.46549e-12
2.4391e-12
-7.89128e-13
-7.94358e-12
-1.53617e-11
-1.54659e-11
-1.44842e-11
-1.33665e-11
-1.12261e-11
-1.6066e-11
-2.29462e-11
-8.69088e-12
4.67055e-12
9.38641e-12
-5.03667e-12
-2.64912e-11
1.31594e-11
1.26843e-11
1.07489e-11
4.99515e-12
-1.13173e-12
-3.51953e-12
-8.70178e-12
-1.51225e-11
-1.54476e-11
-1.44544e-11
-1.31518e-11
-1.1466e-11
-1.70428e-11
-1.95309e-11
7.40359e-12
1.64746e-11
1.59476e-11
1.18545e-11
-1.79121e-11
1.27385e-11
1.11647e-11
7.74447e-12
-1.2826e-13
-4.30602e-12
-5.65816e-12
-9.18855e-12
-1.48717e-11
-1.53758e-11
-1.4389e-11
-1.29034e-11
-1.19824e-11
-1.77077e-11
-7.57973e-12
1.74799e-11
2.14357e-11
1.75409e-11
-4.46269e-12
-1.8072e-11
1.02555e-11
7.53111e-12
2.27841e-12
-5.46498e-12
-5.23764e-12
-6.53506e-12
-9.56003e-12
-1.4568e-11
-1.5286e-11
-1.42647e-11
-1.26417e-11
-1.27523e-11
-1.75848e-11
2.59168e-12
3.06479e-11
3.47179e-11
3.06175e-11
4.95864e-12
-2.20833e-11
6.66463e-12
2.38998e-12
-4.67593e-12
-7.94455e-12
-3.53504e-12
-4.37885e-12
-8.38389e-12
-1.45122e-11
-1.51495e-11
-1.40747e-11
-1.25366e-11
-1.40259e-11
-1.70905e-11
1.33766e-11
5.24225e-11
5.92884e-11
5.46239e-11
4.21657e-11
4.0946e-11
3.60117e-12
-3.10349e-12
-1.06567e-11
-6.13575e-12
-2.01347e-12
-1.30625e-11
-1.46534e-11
-1.38639e-11
-1.49926e-11
-1.38252e-11
-1.22139e-11
-1.42428e-11
-1.53954e-11
2.42415e-11
6.30627e-11
8.13003e-11
7.55767e-11
4.84072e-11
4.33896e-11
3.85412e-13
-7.78537e-12
-1.36108e-11
-4.54754e-12
8.36021e-12
7.70349e-13
5.25617e-12
-1.43776e-11
-1.46887e-11
-1.34185e-11
-1.31481e-11
-2.00763e-11
-1.61122e-11
5.47638e-12
2.59087e-11
5.94553e-11
6.90843e-11
5.82031e-11
9.76176e-12
-2.96875e-12
-1.06474e-11
-1.52155e-11
-8.25915e-12
1.05824e-11
4.62321e-12
-6.78968e-12
-1.46366e-11
-1.4086e-11
-1.30979e-11
-1.41621e-11
-2.22139e-11
-1.9427e-11
-1.05025e-11
-8.97834e-12
-1.39052e-11
-4.84978e-12
2.65971e-11
5.59191e-11
-5.99995e-12
-1.2116e-11
-1.61479e-11
-1.77468e-11
-7.75422e-12
-6.13974e-12
-1.65263e-11
-1.40203e-11
-1.32049e-11
-1.29018e-11
-1.49369e-11
-2.22028e-11
-2.41552e-11
-2.12364e-11
-1.65209e-11
-2.32242e-11
-4.37764e-11
-5.41491e-11
-3.92427e-11
-8.56113e-12
-1.25255e-11
-1.44206e-11
-2.04677e-11
-2.05009e-11
-1.64995e-11
-1.62577e-11
-1.23273e-11
-1.23286e-11
-1.2824e-11
-1.59239e-11
-2.36523e-11
-2.85116e-11
-2.21885e-11
-3.76973e-12
-4.04781e-12
-4.05376e-12
-2.89462e-11
-4.34567e-11
-1.06579e-11
-1.25798e-11
-1.10589e-11
-1.5464e-11
-1.90487e-11
-1.72175e-11
-1.33065e-11
-1.05537e-11
-1.17313e-11
-1.30507e-11
-1.77328e-11
-2.61403e-11
-2.90589e-11
-1.71452e-11
-6.47174e-12
-6.4424e-12
-1.16231e-11
-1.88421e-11
1.24667e-11
-1.23896e-11
-1.31882e-11
-8.95424e-12
-9.63779e-12
-1.24049e-11
-1.2695e-11
-1.05384e-11
-9.69292e-12
-1.15061e-11
-1.39722e-11
-2.04112e-11
-2.75049e-11
-2.40556e-11
-9.26734e-12
-9.73974e-12
-5.90674e-12
-1.02984e-11
-1.86417e-11
-9.62553e-12
-1.38614e-11
-1.47624e-11
-9.43365e-12
-7.27188e-12
-8.17204e-12
-8.99876e-12
-9.00651e-12
-9.55744e-12
-1.17384e-11
-1.58348e-11
-2.30906e-11
-2.57978e-11
-1.51116e-11
-1.89197e-12
-8.18525e-12
-6.04141e-12
-1.03587e-11
-1.92074e-11
1.59334e-11
-1.4973e-11
-1.7125e-11
-1.23595e-11
-8.67111e-12
-7.65854e-12
-7.78759e-12
-8.52018e-12
-9.89833e-12
-1.29176e-11
-1.86284e-11
-2.46973e-11
-2.10819e-11
-6.74222e-12
-3.55755e-12
-6.91725e-12
-5.88004e-12
-1.05819e-11
-1.49968e-11
-2.85792e-12
-1.51191e-11
-1.92267e-11
-1.64546e-11
-1.23908e-11
-9.92732e-12
-8.88427e-12
-9.34158e-12
-1.13046e-11
-1.54572e-11
-2.17181e-11
-2.45579e-11
-1.52257e-11
-1.69345e-12
-6.67351e-12
-7.01131e-12
-5.86798e-12
-1.07927e-11
-1.40552e-11
-1.27576e-11
-1.25898e-11
-1.85953e-11
-2.01934e-11
-1.86742e-11
-1.53572e-11
-1.31571e-11
-1.28211e-11
-1.5002e-11
-1.99051e-11
-2.53505e-11
-2.38158e-11
-1.04162e-11
4.17569e-13
-6.35356e-12
-7.16765e-12
-5.8556e-12
-1.10174e-11
-1.47988e-11
-1.36033e-11
-5.66866e-12
-1.30504e-11
-1.78849e-11
-2.15417e-11
-2.16741e-11
-2.13392e-11
-2.17303e-11
-2.37044e-11
-2.66917e-11
-2.71929e-11
-1.97619e-11
-5.91435e-12
-1.1875e-13
-5.7279e-12
-7.21155e-12
-5.84804e-12
-1.12559e-11
-1.50349e-11
-1.43942e-11
5.08568e-12
1.41714e-11
2.88937e-12
2.98987e-12
1.90395e-11
4.10935e-12
3.21429e-12
3.2412e-12
2.172e-11
4.38937e-12
5.8268e-12
1.69205e-11
4.10433e-12
8.31393e-12
5.02104e-11
9.36207e-12
6.69378e-12
1.54124e-11
-3.41447e-13
-1.61962e-12
-3.40852e-13
-2.0855e-13
-2.74015e-13
-4.01093e-13
-4.5522e-13
-4.28771e-13
-1.11853e-11
-3.90786e-13
-4.25435e-13
-4.66561e-13
-5.04952e-13
-5.27969e-13
-5.05204e-13
-4.3748e-13
-3.31986e-13
-1.67226e-13
9.01976e-14
4.25969e-13
7.11306e-13
9.70916e-13
3.21822e-11
5.64585e-12
5.60515e-12
5.23835e-12
1.34204e-11
-7.10092e-13
-1.67571e-12
-2.28821e-12
-3.56672e-11
1.74576e-12
-1.80056e-12
-2.34844e-12
-1.20852e-12
-1.83586e-12
-2.62347e-12
-2.5028e-11
-5.44412e-12
-5.83968e-12
-5.97545e-12
-3.5857e-11
-1.16988e-12
-9.66053e-13
-7.15464e-13
-4.12849e-13
-1.8248e-13
-3.95602e-14
4.14271e-14
8.22937e-14
7.36212e-14
2.18691e-14
-4.57885e-14
-1.00851e-13
-1.39277e-13
7.53202e-13
2.70351e-15
5.96929e-14
2.07643e-14
-1.17073e-13
-2.20351e-13
-1.23654e-13
-8.89989e-13
-9.33883e-13
-2.74625e-12
-2.99806e-13
5.76604e-13
8.28436e-12
2.20968e-12
4.0453e-12
2.99312e-11
4.37098e-12
2.29837e-12
6.92698e-12
-1.415e-12
-1.54482e-12
-1.68929e-12
9.5676e-12
1.63878e-12
3.2421e-13
7.39231e-12
-7.96601e-13
-1.24872e-11
-1.26954e-11
-1.17751e-11
-1.15829e-11
-7.58488e-12
3.12472e-13
1.12895e-11
1.64568e-11
1.53353e-11
1.44936e-11
1.37042e-11
1.09944e-11
1.51747e-11
2.28447e-11
2.79815e-11
3.08221e-11
3.25143e-11
2.93528e-11
3.60144e-11
-1.33327e-11
-1.32818e-11
-1.20598e-11
-1.1453e-11
-7.34121e-12
-2.07613e-12
9.04192e-12
1.61405e-11
1.53901e-11
1.44958e-11
1.36391e-11
1.10294e-11
1.52825e-11
2.26205e-11
2.68406e-11
2.6094e-11
2.59556e-11
2.81259e-11
3.61376e-11
-1.29851e-11
-1.29989e-11
-1.19427e-11
-1.02802e-11
-5.17727e-12
-1.42684e-12
7.796e-12
1.56963e-11
1.54409e-11
1.44945e-11
1.35273e-11
1.10995e-11
1.5526e-11
2.25675e-11
2.19894e-11
1.38641e-11
9.85554e-12
2.00654e-11
3.46469e-11
-1.30892e-11
-1.30316e-11
-1.18421e-11
-8.46549e-12
-2.4391e-12
7.89128e-13
7.94358e-12
1.53617e-11
1.54659e-11
1.44842e-11
1.33665e-11
1.12261e-11
1.6066e-11
2.29462e-11
8.69088e-12
-4.67055e-12
-9.38641e-12
5.03667e-12
2.64912e-11
-1.31594e-11
-1.26843e-11
-1.07489e-11
-4.99515e-12
1.13173e-12
3.51953e-12
8.70178e-12
1.51225e-11
1.54476e-11
1.44544e-11
1.31518e-11
1.1466e-11
1.70428e-11
1.95309e-11
-7.40359e-12
-1.64746e-11
-1.59476e-11
-1.18545e-11
1.79121e-11
-1.27385e-11
-1.11647e-11
-7.74447e-12
1.2826e-13