/*--------------------------------*- C++ -*----------------------------------*\
| =========                 |                                                 |
| \\      /  F ield         | OpenFOAM: The Open Source CFD Toolbox           |
|  \\    /   O peration     | Version:  4.1                                   |
|   \\  /    A nd           | Web:      www.OpenFOAM.org                      |
|    \\/     M anipulation  |                                                 |
\*---------------------------------------------------------------------------*/
FoamFile
{
    version     2.0;
    format      ascii;
    class       volVectorField;
    location    "21";
    object      U;
}
// * * * * * * * * * * * * * * * * * * * * * * * * * * * * * * * * * * * * * //

dimensions      [0 1 -1 0 0 0 0];

internalField   nonuniform List<vector> 
1280
(
(-3.67529e-15 -2.14277 -2.71218)
(-2.40856e-15 -1.24999 -2.40481)
(-2.06333e-15 -1.57618 -1.88702)
(-2.1607e-15 -1.04648 -1.99112)
(-3.23595e-15 -0.835481 -2.54783)
(-2.96972e-15 -0.579322 -1.74358)
(-2.32289e-15 -0.254393 -1.90017)
(-2.11234e-15 -0.0173937 -1.91036)
(-3.94247e-15 0.414482 -2.63488)
(-3.25814e-15 0.564719 -1.98461)
(-4.29693e-15 0.915438 -1.76225)
(-2.59514e-15 1.35316 -2.77825)
(-2.96609e-15 1.50012 -2.18103)
(-6.00826e-15 1.88591 -1.89869)
(-8.49343e-15 2.55669 -3.30051)
(-6.76572e-15 2.60909 -2.70206)
(-4.83742e-15 3.19208 -2.37428)
(-2.61948e-15 3.69692 -4.44109)
(2.46755e-16 4.29816 -3.51079)
(1.17046e-15 4.15724 -4.41562)
(1.39837e-15 4.77513 -1.62983)
(8.55588e-16 5.04852 1.3921)
(1.12416e-15 5.03369 3.85734)
(1.64551e-15 5.28055 6.61352)
(1.86757e-15 5.1333 9.21342)
(1.75906e-15 5.40595 11.5624)
(2.3579e-15 3.77846 8.68334)
(1.60323e-15 8.87442 15.0084)
(1.74537e-15 8.95937 14.9911)
(1.9141e-15 8.96911 14.6409)
(2.0716e-15 8.93841 14.0955)
(2.16603e-15 8.87 13.4332)
(2.07263e-15 8.78349 12.7103)
(1.79479e-15 8.67671 11.9769)
(1.36199e-15 8.5629 11.3123)
(6.86056e-16 8.4415 10.7802)
(-3.70041e-16 8.36395 10.4381)
(-1.74757e-15 8.26767 10.2475)
(-2.91818e-15 8.41349 10.2314)
(-3.98325e-15 8.25699 9.3709)
(-5.60177e-15 10.5275 10.3101)
(-4.53482e-15 6.53571 7.49997)
(-4.50213e-15 5.79778 7.70354)
(-4.16375e-15 4.81206 7.97218)
(-1.5484e-15 3.6102 8.55164)
(5.70355e-16 2.04928 5.21794)
(1.34595e-15 1.52897 4.93715)
(1.83792e-15 0.937262 5.2096)
(7.06387e-15 -0.111436 2.24384)
(1.66335e-15 -0.14556 -0.663657)
(-1.61936e-15 -0.257813 0.603728)
(4.0878e-16 -0.693559 3.18164)
(9.70695e-16 -1.41625 4.75443)
(1.47458e-15 -2.04288 4.81945)
(2.1072e-15 -2.46097 5.04043)
(4.35648e-15 -4.3408 8.31869)
(4.41325e-15 -5.30055 7.5949)
(4.69051e-15 -6.27597 7.41912)
(4.79955e-15 -6.9427 7.30815)
(6.26594e-15 -11.3906 10.2721)
(4.79949e-15 -8.87999 9.33338)
(3.96329e-15 -9.04288 10.2965)
(2.93524e-15 -8.87147 10.3571)
(1.69374e-15 -8.96924 10.5528)
(7.48638e-16 -9.03986 10.8787)
(1.62298e-16 -9.16233 11.3749)
(-1.69958e-16 -9.27405 11.9813)
(-3.37615e-16 -9.37611 12.6304)
(-3.02036e-16 -9.45098 13.2506)
(-8.97193e-17 -9.50595 13.8044)
(1.8785e-16 -9.52395 14.2432)
(4.13749e-16 -9.48487 14.4973)
(5.71393e-16 -9.37498 14.4418)
(-1.58778e-16 -4.98163 7.96765)
(-1.10913e-17 -6.2332 10.6481)
(-2.44894e-16 -5.94064 8.58637)
(-8.5187e-17 -6.02618 6.25672)
(4.80301e-16 -5.73239 3.88826)
(9.04002e-16 -5.70024 1.88461)
(5.07297e-16 -5.43506 -0.719518)
(6.43172e-16 -4.82899 -3.13233)
(6.6933e-16 -5.08886 -2.15291)
(4.66751e-16 -5.45342 -2.94309)
(2.16662e-16 -4.46705 -2.18879)
(-4.16696e-16 -3.96026 -2.15153)
(-1.40279e-15 -4.5747 -2.96404)
(-1.59688e-15 -3.16287 -2.28011)
(-2.92343e-15 -2.77631 -2.16635)
(-5.02648e-15 -3.19136 -2.9923)
(-3.15879e-15 -1.67024 -2.28182)
(-1.74625e-15 -1.33158 -2.23915)
(-9.46078e-16 -1.71676 -2.99986)
(1.81154e-15 -0.318529 -2.33363)
(1.1164e-15 -0.0730117 -2.61577)
(1.22081e-15 0.596149 -2.68786)
(-1.62611e-15 0.515145 -3.64009)
(-1.1843e-15 1.3216 -2.89171)
(-2.34298e-16 2.17961 -2.87046)
(-1.27898e-15 1.31913 -3.74482)
(5.75683e-16 3.09993 -4.02695)
(1.38747e-15 0.283573 -0.72399)
(1.4106e-15 -0.0201311 -0.935555)
(1.30835e-15 0.551038 -1.15855)
(1.28699e-15 0.981021 -1.47411)
(8.42764e-16 0.472802 -1.90267)
(-3.47191e-17 -0.777564 -1.93955)
(-1.25439e-15 -1.54078 -1.73171)
(-1.82854e-15 -2.70486 -0.946964)
(-1.70392e-15 -4.91723 -0.400132)
(-1.6104e-15 -5.6945 0.0291024)
(-1.52268e-15 -5.78932 0.331977)
(-1.2216e-15 -6.02818 0.499756)
(-1.68608e-15 -5.92433 0.424922)
(-2.5383e-15 -3.23096 -0.190471)
(-3.10905e-15 2.5247 -1.99691)
(-3.42468e-15 3.39559 -3.46201)
(-3.6127e-15 1.60357 -4.82398)
(-3.26142e-15 -1.28715 -4.36064)
(-4.0016e-15 -2.61949 -4.15013)
(1.48141e-15 0.357767 -1.32447)
(1.47575e-15 0.153059 -1.60758)
(1.33997e-15 0.721596 -1.88345)
(1.27256e-15 1.2415 -2.23387)
(8.1569e-16 0.678174 -2.74175)
(2.30681e-16 -0.820839 -2.62857)
(-1.00466e-15 -1.85605 -2.04045)
(-1.79339e-15 -3.057 -0.969395)
(-1.71001e-15 -5.152 -0.335152)
(-1.61064e-15 -5.85969 0.125765)
(-1.51546e-15 -5.86234 0.468732)
(-1.22548e-15 -5.98312 0.713897)
(-1.69806e-15 -5.59899 0.679948)
(-2.51339e-15 -2.1483 -0.336634)
(-2.98229e-15 3.40303 -2.81137)
(-2.89933e-15 4.40251 -4.6922)
(-2.88396e-15 2.05573 -6.52656)
(-3.1251e-15 -1.47449 -6.25178)
(-4.01529e-15 -2.94467 -4.4758)
(1.44279e-15 0.409069 -1.60012)
(1.44432e-15 0.256358 -1.93232)
(1.32697e-15 0.830226 -2.31)
(1.14224e-15 1.37174 -2.77898)
(5.75252e-16 0.695235 -3.28565)
(1.58538e-16 -1.02407 -3.172)
(-8.66223e-16 -2.24467 -2.47839)
(-1.74404e-15 -3.46368 -1.07396)
(-1.71565e-15 -5.40832 -0.231837)
(-1.6105e-15 -6.05278 0.277335)
(-1.50303e-15 -6.02007 0.675821)
(-1.23327e-15 -6.09184 1.0347)
(-1.72511e-15 -5.4919 1.10354)
(-2.50751e-15 -1.39232 -0.224845)
(-2.44326e-15 4.1981 -2.74347)
(-1.54046e-15 5.11837 -4.25683)
(-1.09506e-15 2.42005 -5.84388)
(-2.22949e-15 -2.0257 -6.95094)
(-3.84966e-15 -3.67125 -5.0092)
(1.45436e-15 0.488623 -1.71084)
(1.44796e-15 0.427189 -2.10317)
(1.31579e-15 1.04619 -2.65668)
(9.4061e-16 1.60794 -3.27583)
(2.71011e-16 0.801659 -3.68681)
(-8.76809e-17 -1.16776 -3.46729)
(-8.8262e-16 -2.66636 -2.74415)
(-1.70686e-15 -3.95538 -1.15651)
(-1.71843e-15 -5.69575 -0.0759335)
(-1.60936e-15 -6.2408 0.48197)
(-1.48516e-15 -6.18419 0.943105)
(-1.24735e-15 -6.22145 1.44699)
(-1.78511e-15 -5.35661 1.65946)
(-2.54958e-15 -0.494491 0.133711)
(-9.65653e-16 4.84491 -1.36201)
(5.18949e-16 5.64002 -1.60399)
(1.04293e-15 3.03745 -2.44627)
(-5.59629e-16 -1.82311 -5.42881)
(-2.94346e-15 -4.50799 -4.98272)
(1.46215e-15 0.577929 -1.60818)
(1.40937e-15 0.639879 -2.11246)
(1.19432e-15 1.3154 -2.88743)
(5.55017e-16 1.80358 -3.55325)
(-1.25748e-16 0.801338 -3.65683)
(-3.91059e-16 -1.38871 -3.35683)
(-9.66865e-16 -3.12797 -2.63112)
(-1.68028e-15 -4.52448 -1.06001)
(-1.7164e-15 -6.04561 0.159959)
(-1.60605e-15 -6.45529 0.750798)
(-1.46131e-15 -6.38815 1.27519)
(-1.274e-15 -6.40512 1.94381)
(-1.89365e-15 -5.20726 2.25741)
(-2.1701e-15 0.582104 0.716356)
(8.22621e-16 4.67367 1.64042)
(1.83052e-15 5.61224 2.37293)
(1.77195e-15 3.83794 1.9818)
(1.31717e-15 -1.22786 -2.05502)
(-1.99023e-15 -4.50044 -3.78347)
(1.41539e-15 0.703708 -1.23495)
(1.24052e-15 0.936022 -1.98529)
(8.60496e-16 1.63591 -2.93577)
(-1.42511e-17 1.92215 -3.38696)
(-4.78446e-16 0.72076 -3.01631)
(-6.28685e-16 -1.60488 -2.68657)
(-1.02095e-15 -3.5497 -2.06798)
(-1.65241e-15 -5.07985 -0.694173)
(-1.70842e-15 -6.41407 0.499808)
(-1.59878e-15 -6.68889 1.0855)
(-1.43371e-15 -6.64267 1.66624)
(-1.33138e-15 -6.65535 2.48853)
(-1.96752e-15 -5.14424 2.88364)
(-8.42192e-16 0.520367 2.54542)
(1.94221e-15 3.9875 4.74051)
(2.38174e-15 5.6227 5.56377)
(1.94899e-15 4.75916 5.61699)
(-4.95854e-16 -1.06125 1.94452)
(-2.008e-15 -4.19627 -2.18955)
(1.1395e-15 0.907358 -0.710638)
(8.3679e-16 1.32592 -1.7736)
(2.53156e-16 1.90079 -2.66447)
(-6.0722e-16 1.85374 -2.59049)
(-5.8196e-16 0.537351 -1.87022)
(-7.26117e-16 -1.78659 -1.62893)
(-1.06223e-15 -3.88114 -1.19627)
(-1.61867e-15 -5.5645 -0.0554637)
(-1.69844e-15 -6.75084 0.944205)
(-1.58497e-15 -6.92572 1.48101)
(-1.40464e-15 -6.93544 2.10466)
(-1.41693e-15 -6.95327 3.03648)
(-1.95387e-15 -5.26545 3.54645)
(2.87965e-16 -0.146106 4.37724)
(3.40532e-15 3.32714 6.6735)
(3.85754e-15 5.42291 7.8996)
(3.40195e-15 5.69654 9.207)
(5.5096e-16 2.03541 6.08641)
(-2.4537e-15 -1.5161 1.41256)
(7.40514e-16 1.18311 -0.344193)
(2.65553e-16 1.71944 -1.42642)
(-5.19548e-16 1.98776 -1.92526)
(-8.82728e-16 1.63069 -1.25753)
(-3.92782e-16 0.272353 -0.679033)
(-4.86539e-16 -1.92634 -0.512195)
(-9.31543e-16 -4.14851 -0.0710421)
(-1.61247e-15 -5.95128 0.789152)
(-1.68327e-15 -7.01867 1.46806)
(-1.56385e-15 -7.15509 1.92493)
(-1.39296e-15 -7.25193 2.57399)
(-1.55843e-15 -7.29374 3.5541)
(-1.89894e-15 -5.58402 4.19863)
(1.48629e-15 -0.864534 5.51268)
(5.82472e-15 2.61037 7.51839)
(6.5876e-15 4.70591 9.37836)
(6.06933e-15 5.26381 11.9999)
(4.68508e-15 1.43902 12.1852)
(4.54955e-15 -5.08293 9.10754)
(4.0013e-16 1.40721 -0.0923913)
(-3.44833e-16 1.95145 -0.806551)
(-1.18408e-15 1.84757 -0.782078)
(-6.8175e-16 1.36847 0.146069)
(-2.23719e-16 -0.015448 0.509069)
(-1.45138e-15 -2.0307 0.992171)
(-1.62816e-15 -4.34544 1.28757)
(-1.54043e-15 -6.18923 1.71654)
(-1.66584e-15 -7.19453 2.02769)
(-1.53614e-15 -7.37014 2.39763)
(-1.3571e-15 -7.57774 3.05992)
(-1.58253e-15 -7.65886 4.03472)
(-1.7106e-15 -5.98322 4.76541)
(2.6935e-15 -1.5859 6.26043)
(7.00697e-15 1.76957 8.51579)
(9.03337e-15 3.67371 10.2084)
(8.39741e-15 4.50802 12.143)
(5.37858e-15 2.34649 13.7203)
(4.82107e-15 -1.96236 12.2922)
(4.28236e-17 1.5332 0.314043)
(-8.65041e-16 1.98005 0.0824959)
(-1.51231e-15 1.61784 0.451827)
(-5.05283e-16 1.09787 1.33107)
(9.28912e-16 -0.246715 1.96718)
(8.55943e-17 -2.15443 2.47417)
(1.39722e-15 -4.4139 2.56335)
(-1.59751e-15 -6.25648 2.57943)
(-1.63208e-15 -7.28174 2.58134)
(-1.49095e-15 -7.57031 2.88129)
(-1.4609e-15 -7.90065 3.55197)
(-2.45261e-15 -8.02097 4.47561)
(-1.79024e-15 -6.42284 5.25218)
(6.08486e-16 -2.47598 7.28511)
(2.46724e-15 1.05375 10.2465)
(6.60615e-15 3.3268 10.6972)
(7.67603e-15 4.1624 11.0666)
(6.46701e-15 1.94468 10.1939)
(1.08464e-15 -0.759186 7.04022)
(-3.29861e-16 1.56973 0.906388)
(-1.18305e-15 1.88042 1.06013)
(-1.69061e-15 1.37423 1.53562)
(-9.17684e-16 0.77862 2.34231)
(1.17582e-15 -0.483149 3.0256)
(5.1369e-16 -2.26372 3.52854)
(-1.09539e-15 -4.37909 3.52642)
(-1.62629e-15 -6.20144 3.30202)
(-1.56511e-15 -7.30706 3.11632)
(-1.45533e-15 -7.76056 3.37258)
(-1.57356e-15 -8.21126 4.04263)
(-2.46821e-15 -8.3741 4.8637)
(-2.15855e-15 -7.00502 5.65221)
(-1.16695e-15 -3.51745 7.98141)
(-9.97594e-16 0.738639 9.45923)
(-1.54502e-15 3.38863 8.00728)
(-5.38864e-16 4.54444 10.5936)
(2.95523e-15 3.45723 12.1863)
(6.21323e-15 1.18529 7.46054)
(-6.66661e-16 1.53209 1.61258)
(-1.34622e-15 1.71611 2.00454)
(-1.79421e-15 1.12395 2.47978)
(-1.97186e-15 0.492258 3.18287)
(-8.6158e-16 -0.70753 3.77578)
(-6.82194e-16 -2.35489 4.21049)
(-1.83626e-15 -4.31196 4.19363)
(-1.55781e-15 -6.09464 3.90088)
(-1.46721e-15 -7.30279 3.64838)
(-1.43354e-15 -7.94219 3.8818)
(-1.65966e-15 -8.49443 4.52694)
(-2.46698e-15 -8.69012 5.20499)
(-2.68391e-15 -7.55054 5.92303)
(-2.3596e-15 -4.07703 7.37513)
(-1.83565e-15 0.976378 4.27888)
(-2.58047e-15 2.70833 1.08168)
(-4.86405e-15 2.41891 5.17618)
(-6.01656e-15 2.73974 11.3389)
(-4.3603e-15 3.01862 12.0021)
(-9.51237e-16 1.4517 2.36482)
(-1.39173e-15 1.52904 2.88919)
(-1.60229e-15 0.905397 3.30497)
(-2.27419e-15 0.254247 3.90313)
(-2.27788e-15 -0.891965 4.37629)
(-1.83328e-15 -2.42917 4.71683)
(-1.80641e-15 -4.24738 4.70283)
(-1.3697e-15 -5.98462 4.43704)
(-1.36984e-15 -7.29369 4.20196)
(-1.42489e-15 -8.11404 4.42185)
(-1.76932e-15 -8.74449 5.00844)
(-2.62803e-15 -8.95814 5.56135)
(-3.16795e-15 -7.84146 6.2181)
(-2.46539e-15 -3.31613 6.45533)
(-4.18859e-16 2.97509 1.23765)
(-4.49756e-16 3.32918 0.688451)
(-4.50418e-16 0.697422 -0.111032)
(-3.21624e-15 0.754891 3.10841)
(-4.82852e-15 4.46548 8.08195)
(-1.18421e-15 1.34649 3.13091)
(-1.39775e-15 1.34466 3.72083)
(-1.22877e-15 0.712291 4.05028)
(-1.71823e-15 0.0570434 4.55409)
(-2.11653e-15 -1.03529 4.91811)
(-1.91305e-15 -2.48643 5.17821)
(-1.4785e-15 -4.19655 5.16902)
(-1.17264e-15 -5.89608 4.96265)
(-1.30348e-15 -7.29275 4.78324)
(-1.45007e-15 -8.26565 4.98429)
(-1.97031e-15 -8.95148 5.49267)
(-2.90448e-15 -9.1738 6.00714)
(-3.22877e-15 -7.8565 6.60128)
(-1.90502e-15 -2.06658 5.3039)
(-7.19082e-16 3.61176 -0.672231)
(-7.15822e-16 3.10212 1.85284)
(-1.29145e-15 1.43223 0.778718)
(-2.09357e-15 -0.522975 -2.23272)
(1.38519e-15 -1.37469 -0.074935)
(-1.37662e-15 1.21866 3.91228)
(-1.46535e-15 1.17664 4.52603)
(-9.94916e-16 0.562205 4.74713)
(-1.07087e-15 -0.0920495 5.1843)
(-1.37833e-15 -1.1436 5.44873)
(-1.41056e-15 -2.5297 5.64286)
(-1.17093e-15 -4.15903 5.64085)
(-1.07699e-15 -5.83094 5.49559)
(-1.27846e-15 -7.29885 5.37634)
(-1.55246e-15 -8.39995 5.55361)
(-2.26792e-15 -9.16138 6.01144)
(-3.0561e-15 -9.39114 6.60425)
(-2.67285e-15 -7.57575 6.9981)
(-1.0297e-15 -0.297421 3.85526)
(-1.08219e-15 4.16021 -0.996922)
(-6.56305e-16 2.81072 1.47619)
(-1.14427e-15 2.01889 0.0098737)
(-2.0713e-15 1.07293 -0.768549)
(-1.0695e-15 -0.619173 -3.82621)
(-1.54015e-15 1.07657 4.73753)
(-1.64027e-15 1.02473 5.34849)
(-1.04818e-15 0.425741 5.40704)
(-8.07986e-16 -0.212974 5.77941)
(-9.08004e-16 -1.22162 5.98432)
(-9.99863e-16 -2.56285 6.12483)
(-1.00072e-15 -4.13777 6.12535)
(-1.06194e-15 -5.79319 6.02545)
(-1.30427e-15 -7.31549 5.94612)
(-1.75943e-15 -8.51934 6.10395)
(-2.56562e-15 -9.36752 6.59205)
(-2.86643e-15 -9.52132 7.32733)
(-1.67906e-15 -6.83123 7.13485)
(-2.10218e-16 1.55222 1.96186)
(-9.09472e-16 4.50704 -0.0214277)
(-6.71268e-16 2.74405 0.96684)
(-1.15097e-15 2.41337 -0.290929)
(-2.13416e-15 1.43015 -1.22852)
(1.77038e-15 0.468466 -2.89597)
(-1.66367e-15 1.00293 5.66264)
(-1.90278e-15 0.964886 6.23184)
(-1.37328e-15 0.371589 6.10361)
(-9.63457e-16 -0.31864 6.38638)
(-8.50949e-16 -1.28811 6.51197)
(-8.65288e-16 -2.58719 6.60722)
(-9.46686e-16 -4.11834 6.59561)
(-1.09981e-15 -5.75688 6.51977)
(-1.43529e-15 -7.32452 6.47283)
(-2.06982e-15 -8.66038 6.66456)
(-2.74415e-15 -9.67699 7.27539)
(-2.34244e-15 -9.61107 8.01931)
(-7.49136e-16 -5.62574 6.73571)
(-3.95284e-16 2.63858 0.337345)
(-7.68583e-16 4.49482 0.796679)
(-6.53338e-16 2.92589 0.590327)
(-1.17577e-15 2.85732 -0.527055)
(-1.66632e-15 1.9091 -1.38964)
(-3.17547e-16 0.612057 -2.21701)
(-1.6799e-15 0.677571 6.76553)
(-2.1363e-15 0.826323 7.20907)
(-1.82829e-15 0.322182 6.75845)
(-1.37675e-15 -0.354648 6.97023)
(-1.10304e-15 -1.30742 7.08484)
(-9.87142e-16 -2.59162 7.13958)
(-1.03795e-15 -4.10309 7.11442)
(-1.25607e-15 -5.7501 7.04125)
(-1.71747e-15 -7.38142 7.00844)
(-2.41313e-15 -8.84156 7.24236)
(-2.72866e-15 -9.88194 7.95002)
(-1.69175e-15 -9.2101 8.4736)
(-1.88161e-16 -3.80006 5.89736)
(-7.41501e-16 3.61954 -0.105611)
(-7.79035e-16 4.40363 0.911881)
(-6.51998e-16 3.23206 0.300187)
(-1.19919e-15 3.20079 -0.744778)
(-1.56169e-15 2.14033 -1.51737)
(-1.41751e-15 0.88968 -2.10169)
(-1.39886e-15 1.01245 7.40036)
(-2.06615e-15 1.11848 8.72656)
(-2.24371e-15 0.469985 7.91719)
(-2.07491e-15 -0.448735 7.40564)
(-1.70636e-15 -1.37523 7.40438)
(-1.4619e-15 -2.61184 7.42531)
(-1.42457e-15 -4.08323 7.40006)
(-1.66689e-15 -5.70628 7.34272)
(-2.21167e-15 -7.38456 7.36833)
(-2.81672e-15 -9.02791 7.75631)
(-2.6462e-15 -10.2315 8.58946)
(-1.15735e-15 -8.98295 8.56576)
(4.63965e-17 -2.10816 4.55752)
(-7.05951e-16 4.56601 0.389506)
(-7.96406e-16 4.42656 0.708609)
(-6.50623e-16 3.54088 0.146123)
(-1.22415e-15 3.55248 -0.910034)
(-1.64432e-15 2.40394 -1.59694)
(-1.51148e-15 1.06771 -2.2401)
(-6.29851e-16 -0.14408 6.75022)
(-1.45005e-15 0.422044 9.80622)
(-1.98722e-15 0.812109 9.55673)
(-2.39352e-15 -0.11063 8.77152)
(-2.40824e-15 -1.26853 8.44807)
(-2.37102e-15 -2.55849 8.27823)
(-2.41448e-15 -4.05448 8.15372)
(-2.63382e-15 -5.74557 8.11342)
(-2.96574e-15 -7.57962 8.24407)
(-3.02143e-15 -9.35042 8.67907)
(-2.19577e-15 -10.0744 9.10359)
(-6.5715e-16 -7.30141 7.87257)
(-1.31945e-17 0.203706 2.92125)
(-6.36434e-16 5.09054 0.904348)
(-8.01284e-16 4.67945 0.534811)
(-6.49782e-16 3.97457 0.0755177)
(-1.25066e-15 4.05718 -1.01554)
(-1.67054e-15 2.83244 -1.63953)
(-1.59936e-15 1.32642 -2.44011)
(7.26381e-17 6.85932 12.2404)
(-2.26003e-15 15.3562 25.0655)
(-1.95394e-15 18.6221 29.4117)
(-1.59416e-15 19.1555 29.7452)
(-1.80836e-15 18.2332 28.0624)
(-2.40476e-15 16.7798 25.6997)
(-1.63731e-15 15.1338 23.1589)
(-1.01525e-15 13.6536 21.0333)
(-7.34945e-17 12.2148 18.9288)
(1.42652e-15 10.7068 16.8075)
(3.57441e-15 9.11965 14.6143)
(5.93519e-15 7.4157 12.2719)
(7.80361e-15 5.54414 9.70444)
(9.11108e-15 3.73692 7.21569)
(9.78175e-15 2.43007 5.47916)
(8.48206e-15 1.95158 4.97354)
(4.78116e-15 2.60967 6.12118)
(6.72671e-16 4.26835 8.58144)
(-1.68218e-15 5.79339 10.3354)
(-1.85669e-15 4.02172 7.74986)
(1.84935e-16 9.08377 15.2286)
(-3.50561e-15 17.3404 29.0525)
(-3.18533e-15 17.3028 28.5149)
(-3.17229e-15 14.4538 24.289)
(-3.86695e-15 11.9723 20.6993)
(-4.94336e-15 10.4348 18.7415)
(-3.2884e-15 9.30309 17.3973)
(-2.72262e-15 8.06678 15.7934)
(-1.69464e-15 6.72627 13.9835)
(4.1443e-16 5.33911 12.0269)
(3.155e-15 3.91657 9.9858)
(5.59806e-15 2.50848 7.90759)
(6.27339e-15 1.23555 5.96191)
(6.12027e-15 0.431235 4.63079)
(4.98932e-15 0.631161 4.75939)
(2.19181e-15 2.19495 6.94423)
(-1.5698e-15 4.80207 10.7187)
(-3.61975e-15 7.45002 14.5477)
(-3.93083e-15 8.93959 16.0666)
(-3.71958e-15 6.20863 11.7082)
(-2.69161e-17 9.64148 16.4742)
(-1.84478e-15 16.8935 29.6966)
(-1.34132e-15 15.5888 27.0642)
(-1.43691e-15 13.3846 23.4334)
(-1.75431e-15 12.1376 21.0913)
(-3.47675e-15 11.1948 19.323)
(-1.85356e-15 10.2881 17.6928)
(-2.14827e-15 9.41452 16.0697)
(-2.00174e-15 8.51922 14.4125)
(-1.94569e-15 7.64426 12.6937)
(-1.55967e-15 6.78809 10.9648)
(-1.00645e-15 6.0074 9.31654)
(-1.21549e-15 5.46293 8.02188)
(-2.26548e-15 5.32599 7.44659)
(-3.91519e-15 5.75421 7.93529)
(-5.24837e-15 6.80153 9.66307)
(-5.37599e-15 8.25683 12.1991)
(-3.98072e-15 9.35588 14.7631)
(-2.6639e-15 9.735 15.6359)
(-2.84794e-15 6.97024 12.3598)
(1.30895e-17 8.13544 13.9322)
(3.88497e-16 16.4249 29.2066)
(3.00815e-16 16.3026 28.4567)
(2.97623e-16 14.5815 25.0783)
(3.77427e-16 13.0533 22.1812)
(-2.77153e-15 11.9562 19.9635)
(-1.72594e-15 11.1027 18.3291)
(-1.95393e-15 10.4319 16.8958)
(-2.31495e-15 9.79196 15.5396)
(-2.79608e-15 9.18597 14.1766)
(-3.35689e-15 8.59169 12.7842)
(-3.75209e-15 7.99579 11.3326)
(-3.93754e-15 7.39441 9.82586)
(-3.93661e-15 6.8571 8.46543)
(-4.42133e-15 6.54694 7.61371)
(-5.0722e-15 6.55775 7.63898)
(-5.22295e-15 6.9034 8.5743)
(-3.94504e-15 7.241 9.91181)
(-3.05071e-15 6.99884 10.5177)
(-3.62333e-15 4.78777 7.5824)
(-4.32838e-18 6.96154 11.9526)
(-7.36976e-17 16.8624 29.6364)
(-5.81817e-17 17.4089 30.3732)
(-5.80946e-17 15.4856 26.5618)
(-4.88595e-17 13.715 23.4304)
(4.94101e-16 12.6361 21.1942)
(4.01037e-16 11.7893 19.5606)
(4.24976e-16 11.1006 18.1)
(4.2923e-16 10.4268 16.7251)
(4.58097e-16 9.77633 15.3929)
(4.78619e-16 9.14245 14.1012)
(4.30595e-16 8.52293 12.8393)
(3.26924e-16 7.91001 11.5762)
(1.62011e-16 7.29456 10.2867)
(-4.99545e-17 6.68019 9.01777)
(-2.70884e-16 6.12758 7.92365)
(-3.09419e-16 5.64515 7.22165)
(1.79542e-17 5.26323 6.84692)
(5.82155e-16 4.45432 6.40057)
(1.07564e-15 2.37689 2.97701)
(3.16946e-19 6.38313 10.7174)
(1.15132e-17 17.2405 29.4792)
(8.63709e-18 18.1787 31.3018)
(8.3327e-18 16.2769 27.5134)
(1.80495e-18 14.4272 24.3533)
(-8.35857e-17 13.3568 22.1255)
(-7.38845e-17 12.4899 20.4783)
(-6.88701e-17 11.7527 18.9455)
(-6.11485e-17 11.007 17.4574)
(-5.06493e-17 10.2581 15.9794)
(-3.62255e-17 9.50018 14.5233)
(-1.05917e-17 8.73629 13.102)
(2.80866e-17 7.96705 11.7261)
(8.81887e-17 7.1984 10.3853)
(1.73706e-16 6.40292 9.06367)
(2.68795e-16 5.60004 7.72028)
(3.29658e-16 4.69415 6.38675)
(3.07322e-16 3.78287 4.93732)
(1.49724e-16 2.25658 3.19116)
(4.42264e-18 0.304202 -0.861703)
(-7.92886e-20 7.9763 13.2935)
(-8.44207e-19 18.3913 30.2236)
(-3.34949e-19 19.0689 31.9313)
(-2.4105e-19 17.2178 28.2152)
(7.86963e-19 15.3884 25.2462)
(1.07468e-17 14.4076 23.1165)
(9.1066e-18 13.5596 21.5111)
(5.87657e-18 12.8375 19.9509)
(2.22797e-18 12.0729 18.3913)
(-1.80368e-18 11.2721 16.7742)
(-5.89935e-18 10.415 15.112)
(-1.04205e-17 9.50422 13.4194)
(-1.71355e-17 8.54277 11.7226)
(-2.90944e-17 7.54552 10.0382)
(-4.64988e-17 6.49258 8.38184)
(-6.46436e-17 5.40595 6.70748)
(-7.66663e-17 4.16437 4.99086)
(-8.15955e-17 2.86326 3.00049)
(-9.26529e-17 0.720123 0.46393)
(-9.94156e-17 -0.769993 -3.35343)
(4.57983e-20 11.4084 19.4895)
(-1.10029e-19 20.3081 32.5743)
(-2.79403e-19 19.1992 31.9141)
(-2.98444e-19 17.5585 28.3347)
(-3.45707e-19 15.9582 26.0948)
(-7.44567e-19 15.2838 24.2852)
(-5.65797e-21 14.4778 22.8642)
(8.60262e-19 13.8461 21.3226)
(1.65e-18 13.0504 19.7076)
(2.36953e-18 12.1783 17.9005)
(2.86018e-18 11.1645 15.9642)
(3.08251e-18 10.0568 13.9285)
(3.46738e-18 8.86102 11.8433)
(4.64867e-18 7.59657 9.72159)
(6.55478e-18 6.22813 7.58002)
(8.08593e-18 4.77724 5.38084)
(8.01932e-18 3.09717 3.18027)
(2.52737e-18 1.47515 0.803532)
(-1.88649e-17 -1.12631 -1.96668)
(-8.46562e-17 -2.12118 -5.78019)
(-1.38291e-20 14.9424 26.5457)
(5.60421e-20 20.9154 33.7706)
(1.05713e-19 17.7186 30.7762)
(1.06603e-19 16.8745 28.0114)
(9.20543e-20 15.462 26.7654)
(-5.34168e-20 15.1006 25.2953)
(-2.89581e-19 14.1717 24.1678)
(-4.53393e-19 13.5509 22.6529)
(-5.55936e-19 12.4751 20.9338)
(-6.20193e-19 11.299 18.78)
(-6.15205e-19 9.84477 16.4306)
(-5.36411e-19 8.31671 13.9455)
(-5.10619e-19 6.67382 11.4037)
(-6.86829e-19 4.92447 8.73373)
(-6.71484e-19 2.97098 5.87895)
(5.91916e-19 0.781246 2.74385)
(3.12982e-18 -1.76678 -0.70606)
(7.40181e-18 -2.21277 -2.76877)
(-1.41721e-17 -4.35948 -5.0524)
(-8.57501e-17 -3.56566 -7.93025)
(3.05142e-21 16.1556 29.5957)
(-1.60858e-20 18.8412 31.3168)
(-2.64364e-20 15.5696 28.6822)
(-2.57997e-20 15.4021 26.8937)
(-1.1551e-20 13.8753 25.9447)
(5.88139e-20 13.4233 24.5622)
(1.10647e-19 12.2533 23.5301)
(1.3465e-19 11.3731 21.9316)
(1.47071e-19 9.86442 19.9636)
(1.32346e-19 8.26516 17.4154)
(5.9389e-20 6.39708 14.711)
(-8.15119e-20 4.58448 11.9622)
(-3.10161e-19 2.72462 9.23958)
(-2.98188e-19 0.862548 6.43758)
(1.51265e-18 -0.939544 3.68825)
(5.74139e-18 -2.43362 1.31424)
(5.4596e-18 -3.57657 -0.765573)
(-1.00958e-17 -4.3081 -2.69316)
(-3.6123e-17 -3.66495 -2.84387)
(-4.02446e-17 -0.931058 -0.245636)
(-4.06792e-22 14.894 27.4857)
(3.44482e-21 17.0809 28.9965)
(4.70397e-21 14.4648 26.913)
(3.6221e-21 13.9729 24.754)
(-2.81375e-21 12.3226 23.6352)
(-1.76746e-20 11.6374 22.0959)
(-2.08534e-20 10.2975 20.9329)
(-1.22124e-20 9.19158 19.3001)
(6.20735e-21 7.59261 17.3572)
(2.04708e-20 5.91577 14.9067)
(-2.00332e-21 4.07645 12.2788)
(-9.50013e-20 2.33084 9.646)
(-1.97625e-19 0.702205 7.19)
(2.27899e-19 -0.644334 5.05486)
(2.30885e-18 -1.49414 3.52663)
(5.94347e-18 -1.48552 3.11402)
(7.76628e-18 -0.13564 4.59301)
(4.6949e-18 2.75976 8.09274)
(2.87826e-19 5.98452 11.7376)
(6.2697e-19 5.28381 10.7315)
(3.52623e-23 13.8128 25.4256)
(-4.74122e-22 17.3997 28.8163)
(-4.80642e-22 14.3735 26.1576)
(-1.52051e-22 14.0286 23.2915)
(8.41215e-22 12.2343 22.0559)
(2.20095e-21 11.732 20.0466)
(9.16712e-22 10.3648 18.634)
(-7.39981e-22 9.5146 16.8879)
(-1.31045e-21 8.31189 15.2289)
(-8.47601e-21 7.22445 13.3018)
(-4.31369e-20 6.04899 11.2708)
(-9.48501e-20 5.01554 9.23514)
(-4.04348e-20 4.22106 7.50622)
(2.78255e-19 3.9157 6.48356)
(7.15455e-19 4.28788 6.55877)
(8.40171e-19 5.11972 7.59523)
(3.85305e-19 6.31415 9.33515)
(-4.14657e-19 7.32005 11.2841)
(-7.2312e-19 7.88419 12.0803)
(-1.49172e-19 5.56238 9.79479)
(9.17388e-25 13.9317 25.6792)
(1.44082e-23 18.2783 29.6029)
(-4.08319e-23 14.939 26.9479)
(-1.21908e-22 14.8119 23.858)
(-1.87307e-22 13.0627 22.62)
(-4.05329e-23 12.7071 20.6017)
(5.1902e-22 11.5468 19.1305)
(9.78165e-22 10.8587 17.4344)
(9.89092e-22 10.0167 15.9453)
(1.55827e-21 9.333 14.509)
(5.83481e-21 8.70236 13.1634)
(1.40607e-20 8.14505 11.8587)
(1.32871e-20 7.63744 10.5651)
(-1.98892e-20 7.15633 9.30176)
(-9.93755e-20 6.70222 8.13275)
(-2.16776e-19 6.27443 7.24153)
(-3.55224e-19 5.92593 6.79946)
(-5.02403e-19 5.54431 6.73067)
(-6.03183e-19 4.733 6.38429)
(-4.19784e-19 2.7784 3.89486)
(-1.82004e-24 14.6629 27.1753)
(2.02873e-23 18.995 30.2467)
(4.63045e-23 15.3042 27.7104)
(6.56163e-23 15.4948 24.7197)
(3.91552e-23 13.6832 23.5254)
(-1.10168e-22 13.4023 21.5338)
(-3.3464e-22 12.3108 20.0924)
(-5.19615e-22 11.6542 18.4354)
(-6.80152e-22 10.8601 16.9183)
(-1.10418e-21 10.1381 15.4071)
(-2.18897e-21 9.42892 13.9468)
(-3.36305e-21 8.73609 12.5369)
(-1.94439e-21 8.05202 11.1725)
(5.41645e-21 7.36279 9.83814)
(1.8991e-20 6.6291 8.5119)
(3.40823e-20 5.83038 7.1358)
(4.66532e-20 4.84978 5.68986)
(6.77287e-20 3.76407 4.0977)
(1.43746e-19 2.08699 2.26648)
(2.51826e-19 0.444338 -0.943919)
(6.43291e-25 15.5495 29.4824)
(-9.31315e-24 19.4358 30.3862)
(-1.65741e-23 15.4013 28.4676)
(-2.30859e-23 16.1645 25.6262)
(-1.70795e-23 14.0801 24.5884)
(2.80749e-23 14.003 22.5432)
(8.13755e-23 12.811 21.1891)
(9.41575e-23 12.2553 19.5476)
(6.84726e-23 11.4679 18.1061)
(1.07332e-22 10.8098 16.6229)
(3.47474e-22 10.123 15.1507)
(6.98449e-22 9.41681 13.6178)
(7.00879e-22 8.62818 11.9882)
(-5.15659e-23 7.71425 10.2152)
(-1.10548e-21 6.60159 8.29855)
(-8.41057e-22 5.31712 6.22194)
(2.41895e-21 3.75876 4.01144)
(9.50336e-21 2.15333 1.48303)
(1.39089e-20 -0.28437 -1.16918)
(2.02328e-19 -1.49901 -4.81923)
(-2.35182e-25 16.0878 31.4656)
(3.96611e-24 19.385 29.9645)
(7.81417e-24 15.3 29.0362)
(1.07422e-23 16.4863 26.3387)
(9.29429e-24 14.1787 25.4545)
(-8.77857e-24 14.2534 23.4738)
(-5.81896e-23 12.9965 22.2616)
(-1.62768e-22 12.5437 20.7357)
(-3.08343e-22 11.7747 19.4592)
(-3.56778e-22 11.2066 18.1235)
(1.11239e-23 10.5594 16.7796)
(1.208e-21 9.8374 15.2379)
(3.36657e-21 8.855 13.327)
(5.81837e-21 7.47024 10.8549)
(7.2222e-21 5.61916 7.88351)
(6.94098e-21 3.61703 4.84978)
(5.05734e-21 1.58402 2.08533)
(3.59308e-21 -0.277829 -1.44746)
(-3.21013e-21 -2.90417 -4.13679)
(1.08966e-19 -3.16719 -7.90354)
(1.6396e-26 15.667 31.6326)
(-7.02481e-25 18.7014 28.9067)
(2.54494e-25 14.6339 28.6194)
(3.2835e-24 15.7333 26.0698)
(9.32353e-24 13.4844 25.2072)
(7.32257e-24 13.3581 23.4257)
(-4.53636e-23 12.1443 22.2836)
(-1.8634e-22 11.6014 20.9265)
(-3.39893e-22 10.8063 19.7864)
(-1.86734e-22 10.1903 18.5899)
(8.52792e-22 9.44315 17.3084)
(3.27346e-21 8.50577 15.6101)
(6.59315e-21 7.05799 13.0925)
(8.54248e-21 4.90012 9.39353)
(6.55526e-21 2.29102 4.94978)
(2.12283e-21 0.387086 1.80574)
(-1.84838e-21 -0.246547 0.816957)
(-1.71954e-21 -1.53193 -1.58073)
(1.30549e-20 -4.27923 -5.4293)
(4.95611e-20 -3.38109 -6.5901)
(-4.03249e-26 14.2119 30.5618)
(5.31416e-25 18.0269 27.7778)
(2.31558e-24 13.411 27.629)
(6.98365e-24 14.2355 25.3485)
(1.2162e-23 12.1757 24.4378)
(4.4663e-25 11.6627 22.912)
(-6.60263e-23 10.541 21.7623)
(-2.1016e-22 9.77998 20.5371)
(-3.43455e-22 8.95185 19.4229)
(-1.63646e-22 8.19625 18.289)
(8.09749e-22 7.37013 17.0344)
(2.81747e-21 6.35872 15.3843)
(5.03065e-21 4.97823 12.9869)
(5.32238e-21 3.21758 9.70604)
(2.22169e-21 1.43763 6.04535)
(-2.39478e-21 0.0575392 2.80974)
(-3.96087e-21 -1.04218 0.0776143)
(1.84374e-21 -2.08114 -2.40877)
(1.5417e-20 -2.70742 -3.70085)
(2.43537e-20 -1.60656 -2.0229)
(-3.25126e-26 11.1147 28.3038)
(-2.12669e-25 16.8935 24.8067)
(4.91708e-25 11.9052 25.199)
(3.86655e-24 12.5213 23.4974)
(9.76059e-24 10.7713 22.7591)
(8.49255e-24 10.0765 21.679)
(-2.52369e-23 9.05096 20.7764)
(-1.19237e-22 8.24033 19.8462)
(-2.66421e-22 7.43032 18.9663)
(-3.88096e-22 6.69537 18.0948)
(-3.37931e-22 5.99325 17.2176)
(3.3191e-23 5.33039 16.2923)
(7.40695e-22 4.71011 15.2723)
(1.46974e-21 4.15365 14.0806)
(1.56634e-21 3.6668 12.6302)
(6.28858e-22 3.19807 10.8849)
(-6.73505e-22 2.65644 8.7772)
(-6.42561e-22 1.99008 6.02844)
(2.16316e-21 0.980577 2.4634)
(4.8552e-21 -0.372741 -0.867851)
(-1.19809e-27 2.57024 16.9885)
(-4.01879e-26 8.03628 13.6111)
(-1.22899e-26 5.1741 14.4537)
(7.66604e-25 4.99867 14.0533)
(3.18537e-24 4.09036 14.003)
(6.17747e-24 3.54014 13.8188)
(2.05104e-24 2.9799 13.6507)
(-2.7487e-23 2.5268 13.4542)
(-1.08121e-22 2.14046 13.2492)
(-2.58037e-22 1.83538 13.0389)
(-4.6661e-22 1.6079 12.8283)
(-6.81599e-22 1.45618 12.61)
(-8.18186e-22 1.37076 12.3661)
(-7.923e-22 1.35126 12.0687)
(-5.72726e-22 1.41163 11.6895)
(-2.32142e-22 1.5244 11.2381)
(5.86783e-23 1.71576 10.6902)
(1.37758e-22 2.26994 9.76778)
(1.67693e-23 2.3963 8.4095)
(-5.47146e-23 -0.277868 6.29841)
(7.77493e-28 -2.57029 16.9886)
(4.14289e-26 -8.03633 13.6112)
(2.28441e-26 -5.17412 14.4538)
(-7.62574e-25 -4.99869 14.0534)
(-3.28268e-24 -4.09039 14.0031)
(-6.52367e-24 -3.54018 13.8188)
(-2.50057e-24 -2.97995 13.6508)
(2.82304e-23 -2.52689 13.4542)
(1.13573e-22 -2.14059 13.2493)
(2.74105e-22 -1.83554 13.039)
(4.99486e-22 -1.60808 12.8283)
(7.33282e-22 -1.45632 12.6099)
(8.82028e-22 -1.3708 12.3658)
(8.52714e-22 -1.35117 12.0682)
(6.11909e-22 -1.41145 11.6889)
(2.41505e-22 -1.52416 11.2375)
(-7.14909e-23 -1.71551 10.6897)
(-1.54347e-22 -2.26964 9.76745)
(-2.28463e-23 -2.39591 8.40933)
(5.6625e-23 0.277904 6.29812)
(3.0922e-26 -11.1145 28.3036)
(2.29098e-25 -16.8936 24.8064)
(-4.41515e-25 -11.9052 25.1987)
(-3.87048e-24 -12.5215 23.4969)
(-1.00648e-23 -10.7714 22.7586)
(-9.11896e-24 -10.0767 21.6784)
(2.55257e-23 -9.05124 20.7757)
(1.23728e-22 -8.24067 19.8454)
(2.78996e-22 -7.43072 18.9655)
(4.08257e-22 -6.69585 18.0939)
(3.54365e-22 -5.99388 17.2167)
(-4.48072e-23 -5.33132 16.2917)
(-8.06833e-22 -4.71152 15.2722)
(-1.58855e-21 -4.1556 14.0811)
(-1.67886e-21 -3.66909 12.6313)
(-6.48907e-22 -3.20034 10.8866)
(7.70687e-22 -2.65838 8.77906)
(7.7386e-22 -1.99169 6.03019)
(-2.13766e-21 -0.981888 2.46429)
(-4.95542e-21 0.373049 -0.86999)
(4.24688e-26 -14.2115 30.5609)
(-5.38689e-25 -18.0264 27.777)
(-2.32405e-24 -13.4104 27.6281)
(-7.10743e-24 -14.235 25.3476)
(-1.26725e-23 -12.1751 24.4369)
(-1.10069e-24 -11.662 22.9111)
(6.75672e-23 -10.5402 21.7614)
(2.18943e-22 -9.77912 20.5362)
(3.60878e-22 -8.95087 19.4219)
(1.69451e-22 -8.19508 18.288)
(-8.77032e-22 -7.36863 17.033)
(-3.03871e-21 -6.35678 15.3822)
(-5.39605e-21 -4.97616 12.9844)
(-5.61543e-21 -3.21674 9.70492)
(-2.14096e-21 -1.43959 6.04813)
(2.89817e-21 -0.0615767 2.81591)