/*--------------------------------*- C++ -*----------------------------------*\
| =========                 |                                                 |
| \\      /  F ield         | OpenFOAM: The Open Source CFD Toolbox           |
|  \\    /   O peration     | Version:  4.1                                   |
|   \\  /    A nd           | Web:      www.OpenFOAM.org                      |
|    \\/     M anipulation  |                                                 |
\*---------------------------------------------------------------------------*/
FoamFile
{
    version     2.0;
    format      ascii;
    class       volScalarField;
    location    "9";
    object      p;
}
// * * * * * * * * * * * * * * * * * * * * * * * * * * * * * * * * * * * * * //

dimensions      [0 2 -2 0 0 0 0];

internalField   nonuniform List<scalar> 
1280
(
-16.7623
-5.70389
-19.0986
-43.3405
-21.9268
-45.3793
-75.1655
-83.0555
-77.7041
-101.283
-166.489
-138.469
-184.257
-298.014
-262.315
-374.96
-561.375
-655.846
-528.307
-1799.2
-536.918
889.654
1773.16
2240.39
2186.08
2829.37
-1179.27
135.835
292.33
197.061
160.343
114.436
51.9261
-23.626
-102.731
-203.619
-290.647
-443.912
-531.292
-955.067
-2398.15
-1312.58
-760.676
-468.302
954.959
410.996
528.133
545.3
74.3486
558.618
522.673
8.71159
495.473
440.819
280.208
789.066
-533.538
-796.693
-1511.72
-3392.98
-52.9521
391.917
461.77
574.077
566.18
539.484
461.827
382.555
308.418
260.407
232.876
202.802
215.922
-1564.46
2204.78
1474.63
1503.79
1230
966.941
65.1981
-1097.35
-89.5282
-283.392
-227.547
-139.604
-59.6994
-98.2183
-30.7483
-1.05324
-33.5262
-1.0084
12.6866
2.72305
-0.63735
9.95817
21.3144
1.45534
6.97794
12.8145
0.0406601
-19.1287
-93.8078
-51.7131
-6.58318
94.7067
159.808
6.82596
28.5565
0.570871
-74.2326
-40.882
-341.155
-173.745
-6.65364
58.7432
55.8263
43.0766
22.4752
24.4489
-10.1959
-66.7184
-10.8427
74.3247
223.278
339.008
148.352
140.924
55.9262
-72.8087
-115.266
-554.13
-221.792
24.5644
95.9719
100.566
91.5733
52.928
54.6832
-12.5
-94.8418
-9.21242
93.3645
251.426
351.634
220.257
185.73
86.9315
-75.426
-333.437
-635.38
-273.036
64.0866
145.505
136.772
115.548
51.3606
73.3986
-8.43497
-142.035
-19.0987
121.809
325.953
393.542
308.242
248.583
134.556
-37.7057
-511.439
-635.682
-365.688
103
201.44
184.226
149.096
82.0794
145.132
-25.4495
-193.808
-39.7968
147.277
390.067
432.197
365.895
289.722
189.834
29.5063
-627.707
-653.167
-450
144.934
264.348
232.916
173.782
47.1514
119.454
-68.0643
-246.17
-78.037
165.099
451.613
482.247
437.61
328.332
211.895
-74.6146
-624.304
-710.114
-499.415
138.223
346.981
290.801
208.114
146.432
301.179
-155.521
-268.943
-129.963
170.875
492.24
509.594
484.603
346.224
224.66
-144.068
-418.503
-662.177
-517.78
63.1544
424.757
346.103
215.451
-59.7204
82.222
-263.665
-246.36
-185.263
158.41
496.818
525.064
489.117
311.235
227.599
17.2899
-269.87
-638.067
-536.225
-91.5189
459.808
519.459
326.154
612.826
751.465
-353.689
-188.13
-235.427
119.742
435.482
469.759
400.246
235.558
164.875
72.8498
-28.9253
-365.435
-432.021
-155.289
328.212
526.034
480.358
1285.11
4017.16
-399.126
-102.3
-252.91
79.0849
362.164
401.492
298.67
176.944
182.943
192.049
160.048
-98.7876
-209.171
-68.3272
171.072
378.595
639.681
1853.8
2562.55
-415.111
-32.4607
-235.865
77.9759
319.53
331.039
216.01
198.372
262.002
311.434
319.168
90.8724
-33.3101
8.00168
90.5631
286.647
640.375
1896.58
2680.04
-419.068
-11.5685
-226.203
53.6848
252.188
315.679
259.445
242.104
295.961
347.381
353.771
180.886
35.1666
7.12009
38.7172
173.209
332.642
1190.62
3801.94
-417.104
-55.6591
-256.688
10.0891
232.479
298.921
237.287
235.634
305.546
347.825
334.751
219.604
38.2195
-83.0289
-99.917
-49.341
140.638
501.575
697.393
-406.527
-132.742
-272.611
-16.3563
160.938
231.39
220.741
236.469
297.935
344.674
297.26
223.162
51.4882
-106.011
-170.608
-137.704
45.841
-151.786
-24.7626
-376.154
-162.432
-294.393
-45.658
117.347
195.731
198.447
220.757
276.819
339.278
259.64
180.292
-0.696541
-148.154
-188.391
-138.4
19.0958
9.93794
213.753
-337.347
-132.834
-313.791
-46.2505
72.1908
149.243
170.297
200.619
245.162
307.474
222.379
126.775
-21.8978
-120.581
-159.422
-120.238
-3.22098
-55.9874
52.0374
-274.451
-80.1082
-284.986
-47.2572
36.242
110.699
138.633
170.676
204.932
246.319
202.694
104.007
-15.4808
-92.5889
-109.303
-71.3999
6.06112
-15.4761
72.7497
-222.559
-68.1659
-233.54
-44.3641
12.6188
76.3307
108.187
140.192
165.627
186.933
179.553
67.1196
-11.0508
-64.1078
-61.8874
-31.8563
3.74927
-23.1985
24.3359
-116.003
-41.4314
-181.9
-53.5681
-10.9896
47.6209
87.9981
124.171
145.46
153.72
143.543
49.9541
4.36265
-23.5964
-23.9138
-9.58105
1.29904
-11.0658
16.3398
-52.3154
-36.6504
-119.971
-79.0723
-67.9384
-48.6954
-22.3753
13.6627
42.1618
58.7494
60.3649
12.8028
-8.67231
-2.31236
-4.29199
-13.5287
-13.3219
-15.6845
11.8477
7734.96
7827.33
7785.06
7700.63
7541.08
7369.15
7157.03
6918.38
6674.09
6448
6239.73
6047.62
5876.23
5722.44
5586.19
5468.03
5365.62
5279.51
5217.19
5158.78
4175.55
4251.96
4265.07
4293.28
4305.61
4322.11
4334.25
4343.01
4348.98
4347.8
4347.87
4343.5
4341.47
4338.59
4337.37
4339.17
4340.64
4350.28
4353.8
4374.97
5095.55
5065.4
5041.9
5024.89
4998.76
4979.98
4954.15
4930.24
4904.85
4877.95
4853.08
4826.12
4802.07
4777.31
4755.41
4734.67
4717.95
4704.01
4698.75
4695.08
4374.18
4399.49
4402.67
4430.56
4437.44
4455.82
4464.67
4475.67
4484.18
4489.79
4495.48
4497.45
4499.39
4498.63
4497.44
4494.71
4492.47
4489.25
4489.92
4490.52
4303.75
4362.13
4369.02
4420.26
4441.18
4476.22
4502.42
4529.4
4555.53
4577.57
4599.35
4617.2
4633.4
4646.71
4657.3
4665.76
4671.17
4674.33
4675.47
4672.14
3393.51
3546.56
3586.66
3690.23
3758.09
3837.04
3911.83
3981.62
4052.98
4117.79
4181.35
4240.18
4295.17
4346.25
4391.64
4433.52
4466.91
4497.77
4515.22
4536.51
1901.73
2145.47
2251.84
2398.9
2533.36
2664.39
2808.23
2935.77
3070.95
3195.86
3318.71
3435.87
3547.59
3655.67
3757.35
3857.23
3945.65
4034.42
4096.52
4174.13
-810.084
-617.984
-452.912
-338.394
-174.664
-45.1883
137.562
287.781
469.043
639.966
819.852
998.505
1175.92
1353.52
1526.56
1706.83
1878.29
2085.18
2258.76
2531.23
-2968.11
-3178.52
-3135.49
-3284.82
-3331.24
-3476.06
-3541.02
-3670.56
-3732.16
-3787.59
-3775.81
-3719.4
-3609.24
-3453.94
-3263.24
-3039.83
-2820.21
-2575.14
-2389.91
-2016.69
-6.50524
-494.046
-614.944
-975.205
-1202.6
-1566.2
-1862.84
-2252.04
-2603.3
-2982.12
-3313.15
-3618.76
-3863.43
-4045.26
-4139.96
-4154.66
-4095.56
-3979.92
-3958.41
-3865.78
4873.53
4523.83
4443.51
4170.93
4058.27
3807.68
3667.75
3447.83
3294.05
3113.46
2972.27
2828.25
2703.5
2579.23
2469.71
2371.15
2289.95
2313.28
2333.3
1968.1
6979.86
6971.2
7026.63
6962.44
7053.01
6965.19
7003.44
6891.23
6821.22
6649.18
6460.16
6205.74
5921.1
5608.94
5309.75
5065.01
4898.36
4795.99
4804.46
4625.59
5249.44
5385.38
5528.01
5547.99
5756.15
5784.62
5976.22
6060.01
6218.73
6323.17
6428.3
6480.47
6482.62
6411.69
6286.29
6139.97
6058.63
6052.73
6099.86
6091.52
4042.06
4139.16
4326.25
4279.22
4517.59
4488.44
4669.08
4706.27
4826.98
4905.24
5002.2
5096.36
5194.81
5296.42
5395.5
5495.35
5588.17
5698.13
5777.69
5883.18
1832.28
1877.95
2137.82
2059.87
2367.27
2327.72
2564.39
2618.68
2786.04
2899.86
3040.88
3176.92
3317.44
3464.63
3613.21
3775.07
3929.4
4108.73
4237.34
4441.12
58.7661
-117.355
83.6131
-153.994
71.9553
-100.662
42.1028
-17.3243
59.1133
73.1294
129.093
178.088
237.957
308.256
385.783
496.684
618.025
800.529
977.033
1260.52
1662.21
1258.68
1340.62
802.321
791.431
366.988
212.517
-100.296
-312.069
-563.214
-774.099
-979.635
-1157.06
-1301.78
-1399.24
-1423.29
-1405.37
-1361.8
-1347.83
-1220.32
4117.95
3587
4093.45
3436.02
3550.83
3132.45
2958.43
2622.45
2335.89
2005.2
1678.56
1339.69
1005.58
688.135
414.59
221.476
129.288
60.1814
-21.3643
-60.0848
3873.76
2207.66
2976.85
2033.76
1986.5
1474.54
1195.89
839.606
564.661
313.483
123.619
-9.68802
-72.4432
-58.8641
47.7929
268.41
567.971
907.264
1263.2
1428.93
55830.3
49368.9
45935.4
41631.9
38039.6
34485.2
31211.9
28098.2
25168.4
22390.9
19756
17248.4
14856.7
12570.9
10403.4
8332.02
6277.99
4523.22
2804.14
-135.877
57070.7
50609.1
47175.5
42871.8
39279.3
35724.7
32451.1
29337.3
26407.2
23629.5
20994.5
18486.8
16095.1
13809.2
11641.5
9570.2
7516.4
5761.61
4041.98
1101.04
5110.16
3443.94
4213.12
3270.01
3222.71
2710.8
2432.19
2076.05
1801.31
1550.44
1360.99
1228.16
1165.91
1179.9
1286.75
1507.71
1807.94
2147.23
2503.32
2669.43
5357.28
4826.6
5333.27
4675.99
4791.08
4372.9
4199.24
3863.58
3577.49
3247.31
2921.26
2582.92
2249.12
1931.64
1657.71
1464.51
1372.8
1303.85
1224
1185.07
2905.51
2503.84
2586.16
2049.1
2039.1
1616
1462.58
1151.31
940.923
691.594
482.575
279.094
103.662
-39.3314
-135.435
-158.631
-140.049
-96.9109
-82.863
43.1931
1325.54
1148.5
1347.19
1109.17
1332.71
1159.07
1300.67
1239.42
1315.32
1327.67
1382.78
1430.31
1488.66
1556.89
1631.71
1738.97
1856.19
2033.78
2206.94
2485.06
3011.23
3055.03
3313.89
3232.3
3535.72
3492.13
3723.33
3775.92
3939.42
4053.18
4193.3
4329.24
4468.98
4615.07
4762.28
4923.13
5075.78
5252.34
5378.59
5577.96
5355.65
5480.17
5647.93
5554.38
5783.89
5730.92
5916.03
5944.73
6077.7
6149.05
6236.62
6309.45
6388.39
6479.18
6574.41
6672.07
6761.68
6866.65
6943.11
7043.63
6652.91
6684.48
6824.58
6663.64
6762.15
6704.19
6786.87
6824.67
6933.39
7036.4
7154.03
7242.38
7314.43
7332.53
7287.8
7214.39
7181.86
7203.67
7248.91
7265
7469.89
7433.97
7425.37
7353.43
7355.82
7340.38
7356.85
7360.8
7373.84
7371.99
7337.37
7259.81
7152.25
7009.88
6869.07
6763.25
6708.67
6688.65
6724.15
6662.35
6797.33
6619.56
6576.79
6546.26
6549.16
6549.63
6537.5
6504.78
6428.25
6302.36
6178.2
6095.82
6034.93
5976.51
5916.46
5854.77
5813.57
5840.77
5866.3
5658.03
4131.8
3918.58
3892.4
3827.51
3769.7
3682.71
3559.65
3395.44
3179.14
2922.92
2673.14
2423.12
2158.96
1918.13
1747.01
1665.07
1673.03
1708.88
1698.56
1741
2451.32
2434.55
2451.63
2419.14
2367.83
2297.66
2209.16
2117.1
2009.55
1889.34
1800.46
1753.2
1750.62
1809.09
1916.64
2060.38
2205.84
2372.39
2489.94
2721.23
3825.79
3985.54
4060.34
4137.52
4202.75
4277.42
4365.17
4472.51
4557.35
4629.06
4764.29
4925.74
5073.27
5218.51
5351.59
5481.14
5591.07
5721.46
5826.67
6009.2
5382.33
5523.07
5577.64
5657.48
5726.06
5804.76
5889.87
5986.32
6096.06
6205.97
6316.17
6425.27
6523.81
6618.64
6702.55
6783.14
6848.5
6914.53
6955.17
6998.08
6292.75
6380.57
6418.33
6480.01
6530.29
6583.69
6635.38
6684.34
6732.37
6779.67
6823.43
6867.07
6906.55
6946.41
6980.39
7016.25
7041.58
7073.84
7086.22
7119.47
7034.38
7085.58
7109.83
7148.63
7176.57
7204.25
7228.99
7252.97
7276.13
7299.97
7322.1
7345.91
7368.95
7395.61
7419.55
7450.34
7472.39
7510.33
7526.27
7579.19
7390.54
7465.29
7498.48
7552.21
7593.86
7637.4
7679.27
7721.46
7762.51
7803.34
7842.96
7883.4
7922.67
7964.92
8003.87
8049.99
8085.68
8139.21
8165.16
8232.3
8713.17
8746.88
8757.67
8782.79
8797.49
8815.29
8831.12
8847.22
8860.71
8873.26
8883.95
8894.53
8903.57
8914.69
8923.04
8937.31
8944.21
8964.57
8968.04
8995.21
8090.82
8197.46
8241.67
8310.2
8361.98
8412.23
8455.39
8489.96
8520.01
8544.89
8566.78
8586.6
8603.49
8620.62
8634.94
8653.56
8667.37
8691.34
8703.24
8731.85
11390
11404.6
11364
11315.3
11239.5
11161.9
11064.3
10945.2
10801.7
10667.9
10535.7
10407
10282.7
10163.1
10048.4
9938.01
9837.28
9734.01
9660.19
9539.46
)
;

boundaryField
{
    outletWall
    {
        type            fixedValue;
        value           uniform 0;
    }
    fineWalls
    {
        type            zeroGradient;
    }
    fineFrontAndBack
    {
        type            zeroGradient;
    }
    fineplugLeft
    {
        type            cyclicAMI;
        value           nonuniform List<scalar> 
20
(
3936.01
4067.5
4134.83
4234.37
4333.7
4448.4
4573.23
4711.37
4860.98
5023.85
5197.81
5397.73
5561.87
6209.13
6461.19
6470.08
6608.58
6582.68
6439.79
6080.58
)
;
    }
    fineplugRight
    {
        type            cyclicAMI;
        value           nonuniform List<scalar> 
20
(
7620.98
7806.53
7879.57
7984.64
8063.64
8146.65
8222.86
8302.69
8387.27
8480.64
8580.88
8681.93
8799.38
9628.36
9370.45
9286.51
9353.02
9337.17
9317.03
9125.05
)
;
    }
    inletOutletLeft
    {
        type            cyclicAMI;
        value           nonuniform List<scalar> 
20
(
3936.01
4067.5
4134.83
4234.37
4333.7
4448.4
4573.23
4711.37
4860.98
5023.85
5197.81
5397.73
5561.87
6209.13
6461.19
6470.08
6608.58
6582.68
6439.79
6080.58
)
;
    }
    inletLeft
    {
        type            zeroGradient;
    }
    inletWallsLeft
    {
        type            zeroGradient;
    }
    inletFacesLeft
    {
        type            zeroGradient;
    }
    inletOutletRight
    {
        type            cyclicAMI;
        value           nonuniform List<scalar> 
20
(
7620.98
7806.53
7879.57
7984.64
8063.64
8146.65
8222.86
8302.69
8387.27
8480.64
8580.88
8681.93
8799.38
9628.36
9370.45
9286.51
9353.02
9337.17
9317.03
9125.05
)
;
    }
    inletRight
    {
        type            zeroGradient;
    }
    inletWallsRight
    {
        type            zeroGradient;
    }
    inletFacesRight
    {
        type            zeroGradient;
    }
}


// ************************************************************************* //
