/*--------------------------------*- C++ -*----------------------------------*\
| =========                 |                                                 |
| \\      /  F ield         | OpenFOAM: The Open Source CFD Toolbox           |
|  \\    /   O peration     | Version:  4.1                                   |
|   \\  /    A nd           | Web:      www.OpenFOAM.org                      |
|    \\/     M anipulation  |                                                 |
\*---------------------------------------------------------------------------*/
FoamFile
{
    version     2.0;
    format      ascii;
    class       volVectorField;
    location    "9";
    object      U;
}
// * * * * * * * * * * * * * * * * * * * * * * * * * * * * * * * * * * * * * //

dimensions      [0 1 -1 0 0 0 0];

internalField   nonuniform List<vector> 
1280
(
(5.10447e-18 5.01076 0.161182)
(-1.24553e-17 6.77891 -1.88416)
(-3.7155e-17 6.41763 -1.78107)
(2.70619e-19 6.65857 -1.68046)
(6.30542e-18 9.08756 -4.45088)
(-1.85316e-17 7.92013 -3.76203)
(6.48039e-17 9.30886 -3.82994)
(-4.9051e-16 9.06626 -3.46267)
(1.03518e-15 12.046 -6.92897)
(9.87252e-16 11.2209 -5.49019)
(2.05064e-15 12.2358 -4.79083)
(-1.91078e-15 15.5483 -9.61956)
(-2.96218e-15 14.4983 -7.84277)
(-3.83787e-15 16.0978 -7.06939)
(-1.03203e-14 20.1101 -13.4051)
(-8.26944e-15 19.0348 -10.4684)
(-7.10933e-15 21.7542 -9.75526)
(-6.51795e-15 22.6982 -19.4015)
(-4.53158e-15 29.048 -15.0231)
(-3.70878e-15 22.9563 -16.9482)
(-9.66321e-15 27.1409 50.448)
(-1.56115e-14 27.834 73.9688)
(-1.9781e-14 29.8341 84.5831)
(-2.32227e-14 32.6693 88.9581)
(-2.61481e-14 34.2003 90.8206)
(-2.84453e-14 37.6594 93.1137)
(-2.58317e-14 34.0192 60.2035)
(-3.3182e-14 73.4954 112.049)
(-3.55525e-14 73.9491 112.586)
(-3.7913e-14 74.9766 112.265)
(-3.9887e-14 75.4334 111.745)
(-4.19057e-14 75.7522 110.95)
(-4.44576e-14 75.923 110.082)
(-4.70678e-14 75.9714 109.29)
(-4.95543e-14 75.9236 108.802)
(-5.21375e-14 75.6641 108.663)
(-5.43975e-14 75.4657 108.931)
(-5.77686e-14 74.6355 109.531)
(-6.09238e-14 74.6324 109.95)
(-7.36847e-14 72.2758 108.675)
(-6.33223e-14 88.9016 125.369)
(-3.62944e-14 53.7672 91.7858)
(-3.49788e-14 43.9967 93.515)
(-3.38314e-14 32.3205 92.4177)
(-2.82533e-14 18.756 82.2489)
(-1.30246e-14 8.55374 32.9417)
(-7.47455e-15 4.40419 15.7235)
(7.33335e-17 4.69233 1.01038)
(1.75191e-14 2.93626 -21.1918)
(1.18965e-14 0.113073 -19.3814)
(4.40472e-16 3.03185 -19.2067)
(-2.06342e-14 0.702607 -21.5906)
(-8.16867e-15 -2.10485 -0.711476)
(-2.05024e-15 -1.40051 13.0055)
(4.13388e-15 -5.40182 29.5582)
(1.60077e-14 -13.7615 77.775)
(1.61401e-14 -27.7922 92.7906)
(1.56318e-14 -38.8401 96.624)
(1.55664e-14 -50.0391 96.876)
(3.94647e-14 -90.9536 137.932)
(5.91951e-14 -68.8374 127.534)
(4.6712e-14 -70.6216 132.157)
(4.31313e-14 -69.921 132.805)
(3.94585e-14 -70.3875 132.672)
(3.8152e-14 -69.982 131.676)
(3.62984e-14 -69.7731 129.572)
(3.54884e-14 -69.1826 126.495)
(3.42977e-14 -68.5287 122.797)
(3.4092e-14 -67.7139 119.068)
(3.35839e-14 -66.8171 115.648)
(3.25158e-14 -65.8303 112.615)
(3.16767e-14 -64.7865 109.721)
(3.11477e-14 -63.1653 106.566)
(1.31272e-14 -27.7652 55.0313)
(2.75879e-14 -28.4917 80.0928)
(2.4949e-14 -25.8659 76.503)
(2.29619e-14 -25.4755 72.7828)
(2.09807e-14 -23.9879 67.828)
(1.77321e-14 -22.4502 60.3867)
(9.27781e-15 -22.0781 46.3628)
(-1.96226e-15 -16.8627 -8.88234)
(-3.49619e-15 -24.5749 -11.0326)
(-4.05e-15 -16.7807 -15.0357)
(-3.45944e-15 -18.2078 -8.29596)
(-2.9716e-15 -15.351 -9.26009)
(-2.74881e-15 -16.6635 -11.487)
(-1.05812e-15 -13.3706 -6.56571)
(-5.22499e-16 -11.8718 -7.23375)
(9.25498e-17 -12.4227 -8.92453)
(4.48327e-16 -9.62982 -4.38125)
(8.04062e-16 -8.74414 -4.96115)
(8.57444e-16 -8.94253 -6.37042)
(2.63525e-17 -6.61763 -3.17971)
(-1.99721e-18 -6.68159 -3.52645)
(-1.02404e-16 -5.59211 -3.63138)
(-3.17335e-16 -5.86821 -4.60758)
(-3.97278e-16 -4.09725 -1.6776)
(-4.73926e-16 -3.85786 -1.94826)
(-5.81687e-16 -3.40249 -2.41205)
(1.20095e-16 -2.34606 0.0419549)
(-6.3492e-15 -5.35366 45.5897)
(-5.44942e-15 -17.7018 41.9489)
(-4.794e-15 -21.3729 40.4727)
(-4.04471e-15 -22.8036 38.0192)
(-3.3422e-15 -19.4098 35.498)
(-2.45e-15 -3.15234 29.6365)
(-6.90678e-17 15.6894 20.0444)
(4.02775e-15 22.8315 18.2515)
(1.17788e-14 25.3081 18.5167)
(2.35183e-14 21.2117 17.2227)
(3.32591e-14 -4.22688 5.04922)
(2.77543e-14 -24.4149 -3.82379)
(1.62355e-14 -31.5962 -6.63186)
(4.61802e-15 -27.1346 -8.37804)
(-2.68919e-16 -17.3539 -7.97973)
(-4.99057e-16 -12.7089 -5.46588)
(-8.476e-17 -11.9879 -6.19694)
(-9.81565e-18 -16.827 -6.30974)
(7.98918e-17 -7.25852 -6.45049)
(-5.62412e-15 -4.30061 40.1623)
(-5.16493e-15 -16.78 40.3351)
(-4.55594e-15 -20.3904 40.3996)
(-3.86864e-15 -21.3038 38.6824)
(-3.18055e-15 -16.0981 35.7162)
(-1.43436e-15 3.83795 27.0296)
(2.65918e-15 18.4999 22.0031)
(9.3434e-15 23.0089 25.1483)
(2.01674e-14 25.36 28.4906)
(3.3258e-14 24.4496 28.7317)
(3.98323e-14 4.81023 16.5289)
(2.97301e-14 -22.3451 -3.98904)
(1.68041e-14 -30.7121 -4.77833)
(5.00237e-15 -26.7307 -6.75959)
(-1.63589e-16 -17.9876 -7.31915)
(-5.79546e-16 -12.9551 -5.26668)
(-1.26681e-16 -11.4516 -6.24993)
(-1.15705e-17 -16.7861 -6.51013)
(8.84737e-17 -8.79748 -6.95029)
(-5.19603e-15 -5.1042 37.36)
(-4.8203e-15 -17.3749 37.6896)
(-4.25478e-15 -20.3449 39.795)
(-3.64757e-15 -20.588 39.2831)
(-2.87664e-15 -14.4389 36.4443)
(1.99585e-16 4.33142 29.0157)
(5.81751e-15 16.9275 28.0731)
(1.37611e-14 20.8286 32.115)
(2.44452e-14 24.169 35.6652)
(3.53013e-14 25.9641 37.1915)
(3.99679e-14 12.176 29.1841)
(3.21639e-14 -16.8813 0.931683)
(1.86148e-14 -29.7682 -2.41088)
(5.78201e-15 -26.0341 -3.73994)
(-1.35571e-16 -18.1668 -5.89164)
(-7.07237e-16 -13.2188 -4.62287)
(-1.81041e-16 -11.227 -6.4693)
(-6.55816e-18 -16.3212 -6.9243)
(-2.34163e-17 -7.57884 -7.41586)
(-4.34862e-15 -4.44259 39.3626)
(-4.51708e-15 -17.9511 35.9251)
(-4.0639e-15 -21.0165 38.739)
(-3.45133e-15 -20.1996 39.8507)
(-2.29916e-15 -12.5906 38.0446)
(2.71127e-15 6.02121 33.6129)
(1.02834e-14 16.6319 34.4679)
(1.93187e-14 19.7463 38.6046)
(2.88292e-14 23.2323 42.7274)
(3.63126e-14 26.8841 46.2798)
(3.81741e-14 19.1652 43.7054)
(3.13416e-14 -11.1069 15.2174)
(2.03797e-14 -28.2067 -0.0231837)
(7.26988e-15 -25.1772 0.650293)
(1.83493e-16 -17.6235 -3.40725)
(-7.30778e-16 -12.9387 -3.02724)
(-2.55276e-16 -10.6982 -6.19245)
(-1.91632e-17 -17.263 -6.62043)
(-2.72499e-17 -10.2126 -8.52784)
(-1.43883e-15 -3.36324 46.0757)
(-3.60575e-15 -17.4091 37.8233)
(-4.08054e-15 -21.8214 38.4624)
(-3.46542e-15 -20.3872 40.4308)
(-1.52109e-15 -11.6912 39.923)
(6.28911e-15 6.0306 38.6346)
(1.62856e-14 15.0193 41.5303)
(2.55811e-14 17.6752 46.7394)
(3.22598e-14 20.9774 51.519)
(3.55304e-14 25.5169 55.7747)
(3.50278e-14 24.6468 58.0319)
(2.87162e-14 0.338497 38.9064)
(1.83662e-14 -23.9019 7.3915)
(9.31788e-15 -24.5056 4.84105)
(1.61097e-15 -16.6903 0.122961)
(-4.32348e-16 -12.0959 -0.851214)
(-2.58165e-16 -9.45759 -6.68107)
(-2.75924e-17 -14.6586 -7.06864)
(1.87942e-16 -3.01619 -9.0249)
(4.77725e-15 -0.84823 56.988)
(-4.64854e-16 -15.1358 44.8473)
(-3.70423e-15 -21.9124 40.9907)
(-3.56324e-15 -20.8973 41.9767)
(-4.21791e-16 -11.7719 42.2875)
(1.08633e-14 5.20311 45.1445)
(2.22117e-14 13.1457 52.1264)
(2.85284e-14 15.6687 59.8269)
(2.97601e-14 19.6489 65.0295)
(3.00712e-14 25.2416 67.6555)
(3.08786e-14 25.7175 68.4112)
(2.64293e-14 9.52192 62.459)
(1.73453e-14 -14.9954 28.1475)
(1.0994e-14 -21.7111 14.5088)
(4.10614e-15 -15.5122 7.62289)
(7.31989e-16 -10.3954 3.37011)
(-5.16877e-16 -8.33612 -6.64424)
(-2.31643e-16 -19.4257 -6.02275)
(1.51974e-15 -13.8999 -15.151)
(1.38003e-14 1.90573 70.0138)
(6.21666e-15 -11.3007 57.5609)
(-1.80315e-15 -20.5485 48.28)
(-3.29739e-15 -21.0188 46.1533)
(7.34167e-16 -12.7254 46.1438)
(1.38907e-14 2.26467 54.6203)
(2.26211e-14 9.20692 68.5453)
(1.94987e-14 12.4262 79.0873)
(1.18211e-14 17.828 84.335)
(1.11952e-14 24.2183 85.87)
(1.98293e-14 26.3801 83.9359)
(2.13832e-14 16.0596 82.8969)
(2.06804e-14 -5.19416 56.4384)
(1.35561e-14 -15.9196 35.7805)
(8.00514e-15 -12.1874 24.2513)
(5.32776e-15 -6.06342 16.4063)
(3.29161e-15 -4.5405 1.2349)
(-1.04474e-16 -5.48764 -2.3284)
(-6.10016e-15 13.1374 -49.5626)
(2.35749e-14 4.10824 82.7259)
(1.67065e-14 -6.59976 74.8345)
(2.1233e-15 -17.3283 61.5588)
(-3.62665e-15 -20.1187 55.0235)
(2.18217e-16 -14.9313 53.8799)
(1.19357e-14 -4.03202 67.0992)
(1.0518e-14 3.35663 86.1285)
(-7.50844e-15 9.33139 95.5943)
(-2.22123e-14 17.0087 98.7286)
(-2.17514e-14 24.6588 100.66)
(-7.34238e-15 27.2809 102.011)
(1.27277e-14 20.9925 99.0784)
(2.30163e-14 3.84303 84.0944)
(1.84966e-14 -8.39617 63.3759)
(1.50361e-14 -7.69455 52.6134)
(1.59478e-14 -2.34295 51.2896)
(1.812e-14 -1.71189 52.8918)
(1.97404e-14 -10.3459 57.1897)
(2.63138e-14 -46.7229 82.7313)
(3.11521e-14 4.58366 93.3633)
(3.50996e-14 -2.65975 94.3305)
(2.01116e-14 -12.7148 82.3473)
(1.01778e-14 -17.9012 73.2546)
(9.78059e-15 -17.2029 69.3597)
(8.78245e-15 -10.4801 78.2729)
(-1.44991e-14 -1.83272 90.2582)
(-4.11683e-14 7.30108 92.4283)
(-4.76267e-14 16.1415 90.7854)
(-4.14386e-14 23.5179 93.4443)
(-2.76364e-14 26.8049 100.827)
(-4.45566e-15 22.4843 108.566)
(1.8739e-14 8.79094 107.061)
(2.48176e-14 -3.51867 95.5628)
(2.28554e-14 -6.75356 90.0803)
(2.3723e-14 -5.33268 93.4549)
(2.68088e-14 -6.83062 100.498)
(2.89132e-14 -14.1679 104.747)
(2.75161e-14 -25.4991 99.0348)
(2.83197e-14 2.86465 100.395)
(4.68835e-14 -1.8014 110.365)
(4.43587e-14 -9.21298 105.77)
(3.50119e-14 -14.8449 99.8288)
(2.0213e-14 -16.8668 93.4291)
(-6.68805e-15 -12.575 90.9521)
(-4.10711e-14 -2.3466 84.1592)
(-4.63239e-14 9.0441 71.3288)
(-4.07168e-14 16.4114 66.3758)
(-3.98988e-14 20.3139 73.4669)
(-3.86872e-14 21.5313 88.8041)
(-2.49106e-14 18.6272 106.118)
(-1.97428e-15 8.79376 116.409)
(1.37368e-14 -2.02828 115.295)
(1.39485e-14 -6.77576 111.412)
(1.2967e-14 -6.19244 109.601)
(1.26918e-14 -6.33434 105.965)
(1.25714e-14 -11.4918 89.8526)
(6.09675e-15 -19.5552 51.3506)
(6.36221e-15 -0.425785 102.398)
(2.1405e-14 -4.14084 117.3)
(2.67834e-14 -8.91979 120.228)
(2.09164e-14 -13.0214 119.444)
(2.11924e-15 -13.7095 108.137)
(-1.9979e-14 -6.6818 85.4487)
(-2.25677e-14 6.2355 54.571)
(-1.39043e-14 14.0727 36.5728)
(-1.10199e-14 15.1277 35.6202)
(-2.33297e-14 14.4379 48.5809)
(-3.63525e-14 13.6718 70.3037)
(-3.82327e-14 11.4203 93.1668)
(-2.93487e-14 5.20755 109.971)
(-1.83683e-14 -1.382 116.941)
(-1.49102e-14 -4.63517 115.633)
(-1.7882e-14 -3.34118 112.755)
(-2.27698e-14 0.680248 106.915)
(-2.54436e-14 7.39772 89.1056)
(-1.85996e-14 17.5246 49.7628)
(-1.41135e-14 -4.22944 100.038)
(-1.32327e-14 -8.18062 116.305)
(-1.42132e-14 -10.4346 120.183)
(-1.91363e-14 -9.82028 114.261)
(-2.14169e-14 -3.02018 87.7551)
(-1.20605e-14 8.64857 51.7147)
(1.03358e-15 16.3359 28.937)
(5.80381e-15 16.5822 22.1818)
(1.98397e-15 11.897 22.6345)
(-1.19227e-14 6.65059 33.3792)
(-2.91485e-14 4.11357 53.8194)
(-3.75253e-14 2.77071 74.3882)
(-3.84522e-14 -0.614053 90.314)
(-3.72301e-14 -4.15721 101.35)
(-3.65831e-14 -5.19744 106.155)
(-3.8814e-14 -2.60327 107.44)
(-4.43085e-14 3.39231 109.895)
(-4.86374e-14 12.0288 110.226)
(-4.68228e-14 25.0573 102.806)
(-2.59621e-14 -8.0753 94.3946)
(-3.45793e-14 -11.4078 108.338)
(-3.43581e-14 -8.35445 104.307)
(-2.43275e-14 0.111627 84.8916)
(-6.38281e-15 10.9619 54.3142)
(3.9352e-15 16.952 35.4819)
(5.17716e-15 18.7088 27.461)
(3.49675e-15 16.8711 24.3948)
(1.4248e-15 10.6533 22.8619)
(-7.21809e-15 1.97571 26.2896)
(-2.15852e-14 -2.55852 38.3691)
(-3.05033e-14 -3.30015 52.0067)
(-3.37922e-14 -5.55075 63.4437)
(-3.3727e-14 -7.47065 69.2008)
(-3.18287e-14 -6.73636 69.4165)
(-2.96535e-14 -4.23532 63.3213)
(-3.0088e-14 -0.770392 54.4819)
(-3.64415e-14 7.98864 55.8923)
(-4.98705e-14 44.2216 79.678)
(-2.8221e-14 -10.8734 86.0146)
(-3.6623e-14 -11.3877 94.8877)
(-2.61349e-14 -1.54636 80.5142)
(-7.29033e-15 10.1856 58.3056)
(3.02602e-15 17.2219 41.4333)
(4.29244e-15 19.6915 33.1263)
(2.84056e-15 20.4623 28.027)
(1.96224e-15 18.1401 24.9407)
(1.51041e-15 11.1844 22.1421)
(-2.81388e-15 0.319263 20.1663)
(-1.20696e-14 -6.11071 24.612)
(-1.9838e-14 -7.29097 31.3161)
(-2.56608e-14 -7.83016 39.6725)
(-2.55543e-14 -6.93246 41.3068)
(-2.16005e-14 -3.03133 36.0335)
(-1.43271e-14 3.02253 22.379)
(-7.42152e-15 6.21798 4.21635)
(-2.64918e-15 4.3567 -2.64479)
(3.49211e-15 -9.58733 -35.3127)
(-2.36368e-14 -12.6488 75.5871)
(-2.70902e-14 -8.682 78.9479)
(-1.12555e-14 5.96234 59.1116)
(8.36591e-16 16.0269 44.5966)
(4.24973e-15 20.788 36.2527)
(3.81109e-15 22.0649 31.5128)
(2.76551e-15 21.9972 27.4338)
(2.18325e-15 19.2831 24.3743)
(1.98108e-15 12.514 21.2131)
(-1.4771e-16 0.926349 16.2976)
(-6.32959e-15 -7.19947 16.1288)
(-1.23699e-14 -9.13461 19.1231)
(-1.80319e-14 -9.16041 22.9281)
(-1.71361e-14 -5.69109 21.0596)
(-1.24504e-14 0.875915 13.8746)
(-6.33886e-15 7.97993 4.74864)
(-3.08594e-15 9.67696 -3.70327)
(-1.12285e-15 15.762 -5.05928)
(1.12124e-15 10.2133 -20.6967)
(-1.65011e-14 -13.1113 64.0732)
(-1.57335e-14 -4.23462 63.8637)
(-2.29859e-15 11.7787 45.4107)
(3.54218e-15 19.4331 38.0785)
(4.70983e-15 22.5442 34.1473)
(4.04431e-15 23.3818 31.0103)
(3.01655e-15 23.2893 27.2373)
(2.31713e-15 20.561 23.884)
(2.07885e-15 14.2549 20.6967)
(1.25554e-15 2.86237 14.6983)
(-2.85818e-15 -7.26685 8.80606)
(-7.94435e-15 -9.82194 11.1323)
(-1.23435e-14 -8.85257 11.4312)
(-1.10796e-14 -3.73125 8.51742)
(-6.83709e-15 3.411 2.54266)
(-2.88638e-15 10.1455 -1.45174)
(-1.46168e-15 10.7154 -5.97544)
(-4.17566e-16 14.6447 -5.65905)
(6.97635e-16 4.88459 -12.0456)
(-1.00079e-14 -13.6603 53.1906)
(-7.28802e-15 -0.476978 51.2635)
(1.73044e-15 15.4685 38.0177)
(4.74136e-15 20.9129 35.7083)
(5.1431e-15 23.5394 33.9334)
(4.32094e-15 24.8092 31)
(3.26413e-15 24.8362 27.0973)
(2.45209e-15 21.9362 23.5409)
(2.07328e-15 16.0307 20.5101)
(1.82978e-15 6.33029 15.4846)
(-8.03091e-17 -6.2849 3.98812)
(-3.92504e-15 -10.5171 1.62635)
(-7.8725e-15 -8.37865 1.9057)
(-7.26748e-15 -1.94481 0.296908)
(-3.49673e-15 4.8337 -3.19293)
(-1.06581e-15 11.1967 -3.37906)
(-3.72669e-16 11.4104 -5.7714)
(-4.83126e-17 16.3475 -4.99313)
(-8.48465e-17 10.4569 -8.29306)
(-5.31309e-15 -13.1375 43.9881)
(-2.18131e-15 3.15878 42.2732)
(3.67435e-15 17.4267 35.3684)
(5.46257e-15 21.3109 35.7883)
(5.41544e-15 24.3303 34.2078)
(4.56321e-15 26.1587 30.958)
(3.52276e-15 26.2621 27.1238)
(2.60053e-15 23.2099 23.5722)
(2.09037e-15 17.4127 20.4997)
(1.93326e-15 9.51494 16.7512)
(1.43181e-15 -1.77673 6.32324)
(-4.44085e-16 -8.40979 -4.05421)
(-2.88633e-15 -8.15615 -5.97668)
(-3.32712e-15 -1.63385 -6.72848)
(-1.15562e-15 4.9536 -5.92299)
(-1.73633e-17 11.1772 -2.99197)
(3.87347e-17 11.7038 -4.81995)
(-7.4363e-17 15.8924 -5.40893)
(-1.27808e-16 9.4336 -7.02488)
(-2.77363e-15 -14.2859 37.1794)
(3.37984e-16 3.47147 35.9993)
(4.76622e-15 17.6445 35.9379)
(5.71869e-15 21.6369 36.4202)
(5.52493e-15 25.3641 34.2319)
(4.79598e-15 27.5232 30.9631)
(3.77238e-15 27.5624 27.3576)
(2.75584e-15 24.3144 23.8869)
(2.14327e-15 18.3981 20.7456)
(1.96226e-15 11.3118 17.5466)
(1.75755e-15 2.41674 11.0561)
(1.15257e-15 -6.55344 -2.28774)
(1.19081e-16 -7.66504 -7.80178)
(-3.18563e-16 -2.73858 -9.70064)
(4.05836e-16 3.27889 -5.15423)
(2.43629e-16 10.6873 -1.97463)
(-3.95355e-17 12.4287 -4.75722)
(-8.62871e-17 16.5179 -5.44911)
(-5.82007e-17 10.5759 -6.4284)
(1.58484e-15 -12.8151 42.5298)
(2.86949e-15 4.55351 37.4272)
(5.00031e-15 17.0889 37.8517)
(5.63682e-15 22.4401 36.4778)
(5.59605e-15 26.8154 34.1397)
(4.98072e-15 29.3991 31.0454)
(3.96383e-15 29.6211 27.6005)
(2.89016e-15 26.4036 24.217)
(2.19686e-15 20.4813 21.1295)
(1.98905e-15 13.8389 18.2383)
(1.83709e-15 7.12933 14.5416)
(1.44918e-15 -0.509963 6.6323)
(1.09839e-15 -4.0659 -3.1915)
(8.61185e-16 -2.44101 -5.901)
(6.11718e-16 2.08572 -2.1151)
(1.70271e-16 11.359 -2.17542)
(-4.40734e-17 13.3947 -4.96632)
(-7.98725e-17 16.713 -5.52564)
(-6.7336e-17 9.23394 -6.31299)
(5.99585e-16 100.369 169.95)
(-1.91324e-14 153.203 255.645)
(-1.93235e-14 159.942 260.606)
(-1.84693e-14 153.761 244.748)
(-1.73004e-14 143.891 224.223)
(-2.59604e-14 134.127 203.55)
(-2.69116e-14 124.544 185.664)
(-2.61159e-14 117.58 172.21)
(-2.74949e-14 111.021 160.103)
(-2.93379e-14 104.833 148.711)
(-3.06084e-14 98.5086 138.04)
(-3.24637e-14 92.457 127.768)
(-3.60374e-14 86.2536 118.12)
(-4.00218e-14 80.2834 108.84)
(-4.39978e-14 74.0638 100.037)
(-4.84446e-14 67.879 91.2736)
(-5.36627e-14 60.8441 82.2398)
(-5.99938e-14 53.2111 72.3944)
(-8.58864e-14 40.6781 55.8048)
(-1.38729e-13 23.0869 35.8318)
(-3.21844e-16 108.992 184.036)
(-1.74845e-14 148.313 251.328)
(-1.33369e-14 144.499 245.476)
(-1.40024e-14 133.796 227.53)
(-1.49053e-14 120.715 206.533)
(-2.75915e-14 110.016 187.881)
(-1.91279e-14 102.128 175.347)
(-1.81578e-14 95.9616 163.34)
(-2.14722e-14 89.1367 152.327)
(-2.23575e-14 83.377 141.052)
(-2.28918e-14 76.955 130.564)
(-2.47811e-14 71.5035 120.066)
(-2.90012e-14 65.5925 110.311)
(-3.20887e-14 60.4106 100.465)
(-3.49232e-14 54.642 90.9903)
(-3.88744e-14 49.1293 80.7077)
(-4.37487e-14 42.0841 69.5933)
(-5.2322e-14 33.6769 54.4287)
(-1.45431e-13 13.2997 23.2139)
(-2.63887e-13 -1.99608 -5.75929)
(4.56112e-19 118.521 203.366)
(-7.47187e-15 149.589 256.335)
(-4.94233e-15 144.601 248.375)
(-5.79147e-15 135.243 231.947)
(-5.66855e-15 123.78 212.537)
(-1.69446e-14 114.264 195.101)
(-8.96977e-15 106.544 182.231)
(-8.14245e-15 100.052 169.895)
(-1.05826e-14 93.0383 158.406)
(-1.03495e-14 86.9902 146.925)
(-1.12639e-14 80.5256 136.292)
(-1.17626e-14 74.9981 125.866)
(-1.32554e-14 69.1745 116.142)
(-1.46577e-14 63.955 106.431)
(-1.54036e-14 58.271 96.853)
(-1.68787e-14 52.4569 86.4197)
(-1.95408e-14 45.2611 74.3995)
(-2.66905e-14 34.5188 56.3739)
(-1.58204e-13 16.3318 26.7808)
(-2.01873e-13 8.27849 15.6626)
(2.79137e-17 120.156 206.518)
(1.58834e-15 146.198 252.974)
(1.17632e-15 142.328 245.296)
(1.27577e-15 133.099 229.733)
(1.38829e-15 122.066 210.512)
(-9.76982e-15 112.276 193.174)
(-8.71504e-15 104.538 180.182)
(-8.02566e-15 97.8235 167.951)
(-9.46655e-15 90.9183 156.518)
(-9.84468e-15 84.7508 145.24)
(-1.17046e-14 78.4186 134.669)
(-1.17882e-14 72.7055 124.346)
(-1.27674e-14 66.8159 114.441)
(-1.51975e-14 61.1453 104.454)
(-1.63529e-14 54.9888 94.1667)
(-1.62329e-14 48.243 82.6941)
(-2.29993e-14 39.7296 68.5566)
(-4.02742e-14 26.163 45.933)
(-2.14002e-13 6.16004 11.6116)
(-2.65898e-13 2.98347 5.49452)
(-1.64301e-17 119.885 206.547)
(-3.60437e-16 147.356 255.874)
(-2.94189e-16 144.319 247.872)
(-2.9837e-16 134.696 231.691)
(-3.00307e-16 123.953 212.428)
(2.43957e-15 114.155 195.006)
(1.99091e-15 106.429 181.596)
(1.94412e-15 99.6991 169.378)
(2.46127e-15 92.9693 157.827)
(2.40538e-15 86.6577 146.512)
(2.60336e-15 80.3397 135.672)
(2.77606e-15 74.2588 125.079)
(3.1495e-15 68.091 114.657)
(3.44376e-15 61.8378 104.133)
(3.65842e-15 55.1699 93.1749)
(4.16403e-15 47.878 81.1663)
(5.13575e-15 39.1099 66.8928)
(7.275e-15 27.8571 48.0067)
(1.51113e-14 14.1984 23.9212)
(9.03957e-15 8.21825 12.6702)
(6.92931e-18 118.904 203.712)
(8.79558e-17 151.854 262.605)
(7.78721e-17 147.975 252.071)
(7.42928e-17 137.544 233.874)
(7.31597e-17 126.729 214.359)
(-5.66876e-16 117.287 196.859)
(-4.82367e-16 109.627 183.114)
(-4.85033e-16 103.021 170.573)
(-5.90284e-16 96.3958 158.659)
(-6.0684e-16 89.9863 146.894)
(-6.06886e-16 83.4926 135.401)
(-6.68391e-16 76.9848 124.034)
(-7.7625e-16 70.2934 112.716)
(-8.96724e-16 63.4007 101.275)
(-9.61154e-16 56.0637 89.4994)
(-1.0717e-15 48.2658 76.9023)
(-1.23233e-15 39.1611 62.7429)
(-1.62128e-15 29.0282 45.7992)
(2.0538e-15 14.3394 22.7263)
(1.78406e-15 3.03431 -0.606522)
(-2.40533e-18 122.761 208.676)
(-2.1894e-17 161.076 274.532)
(-2.10159e-17 153.994 259.691)
(-1.96518e-17 143.02 238.68)
(-2.10178e-17 132.149 219.424)
(1.21535e-16 123.813 202.304)
(1.2396e-16 116.537 188.541)
(1.22993e-16 110.357 175.464)
(1.40992e-16 103.906 162.79)
(1.56202e-16 97.372 149.909)
(1.55868e-16 90.4497 136.944)
(1.69204e-16 83.1892 123.866)
(1.9735e-16 75.5297 110.733)
(2.29092e-16 67.5229 97.4966)
(2.57465e-16 58.9522 84.0672)
(2.85734e-16 49.9025 69.99)
(3.18041e-16 39.405 54.7112)
(3.74264e-16 27.9061 36.5879)
(6.51331e-16 10.922 13.0918)
(-3.68593e-16 -0.439841 -11.237)
(7.05076e-19 135.103 230.069)
(5.34628e-18 172.643 288.765)
(5.61359e-18 159.892 268.938)
(5.31405e-18 149.818 246.361)
(6.24407e-18 139.312 229.066)
(-2.36916e-17 133.231 213.452)
(-3.20152e-17 126.815 200.682)
(-3.25668e-17 121.595 187.243)
(-3.48661e-17 115.208 173.372)
(-3.91716e-17 108.188 158.245)
(-4.10287e-17 100.116 142.373)
(-4.47599e-17 91.3128 125.97)
(-5.1762e-17 81.8159 109.37)
(-5.86318e-17 71.7687 92.6064)
(-6.67053e-17 60.8755 75.6725)
(-7.36892e-17 49.2769 57.9921)
(-1.06955e-16 35.5869 39.2074)
(-1.99495e-17 20.9891 16.8321)
(-2.91912e-16 -1.94452 -10.204)
(-5.98993e-16 -13.3014 -40.5367)
(-1.91922e-19 152.22 265.181)
(-1.30261e-18 178.923 297.08)
(-1.45742e-18 160.081 275.54)
(-1.40658e-18 153.41 255.247)
(-1.80104e-18 143.301 242.588)
(4.47574e-18 140.257 230.096)
(7.77783e-18 134.366 220.11)
(8.53804e-18 130.014 206.963)
(8.88855e-18 122.2 191.568)
(9.68781e-18 113.121 172.868)
(1.04052e-17 101.999 152.82)
(1.15713e-17 90.1274 131.917)
(1.33661e-17 77.2908 110.718)
(1.49645e-17 63.6614 88.961)
(1.54245e-17 48.7472 66.5821)
(1.30201e-17 32.8359 43.0594)
(3.77083e-18 14.8668 18.8961)
(1.07952e-16 -2.24839 -9.95838)
(-6.97195e-16 -27.4384 -35.9508)
(5.22073e-16 -29.7929 -72.6372)
(5.48971e-20 158.992 285.494)
(3.30053e-19 168.881 285.011)
(3.70847e-19 148.959 269.312)
(3.72494e-19 144.94 253.397)
(4.56669e-19 134.054 245.243)
(-1.11132e-18 131.519 235.854)
(-1.97859e-18 123.772 228.343)
(-2.19584e-18 117.071 214.496)
(-2.28068e-18 104.09 195.769)
(-2.48317e-18 89.9204 171.821)
(-2.6733e-18 73.5357 147.091)
(-2.78736e-18 57.498 121.831)
(-3.33836e-18 40.5165 96.2261)
(-7.00577e-18 22.9304 69.2881)
(-2.4931e-17 4.52987 41.1264)
(-7.13066e-17 -13.1193 13.8478)
(1.56455e-17 -26.7734 -8.32884)
(7.02731e-16 -37.4091 -29.7918)
(1.89055e-15 -45.6161 -48.9109)
(1.95782e-15 -25.1246 -36.8788)
(-1.86351e-20 147.614 268.519)
(-8.43516e-20 153.153 263.633)
(-9.74431e-20 134.778 249.632)
(-1.10751e-19 129.23 234.352)
(-6.68619e-20 117.545 226.671)
(3.30666e-19 112.331 217.42)
(5.46217e-19 102.146 209.298)
(6.11226e-19 91.5067 194.397)
(6.43921e-19 75.2905 173.981)
(6.81175e-19 58.1089 149.125)
(9.59552e-19 39.9606 124.042)
(1.80534e-18 22.5664 99.1203)
(6.09074e-19 5.25272 74.6162)
(-9.13541e-18 -10.7858 51.0332)
(-1.67811e-17 -23.7688 30.5092)
(4.40254e-17 -30.3346 16.6109)
(2.71227e-16 -25.6794 16.4156)
(6.39388e-16 -4.79964 36.6727)
(8.21202e-16 27.2221 70.6371)
(3.6646e-16 36.4855 78.5429)
(5.60278e-21 134.645 244.479)
(2.13948e-20 148.154 251.311)
(2.58047e-20 126.346 231.402)
(2.94067e-20 121.524 211.637)
(2.37886e-21 107.467 201.922)
(-1.00118e-19 102.039 187.895)
(-1.54463e-19 90.0394 177.759)
(-1.67782e-19 80.515 162.493)
(-1.81475e-19 66.2642 144.713)
(-2.45489e-19 52.4669 122.69)
(-1.51855e-19 37.8298 99.8967)
(8.01406e-19 24.8483 77.2928)
(1.7031e-18 14.181 57.8456)
(-3.94144e-18 9.01809 46.0671)
(-2.3763e-17 12.936 48.4501)
(-5.24375e-17 27.9928 68.1562)
(-7.64505e-17 50.7479 99.6636)
(-1.01305e-16 72.1928 129.94)
(-1.4002e-16 84.196 141.158)
(-1.21397e-16 61.3786 112.732)
(-1.37799e-21 132.662 240.827)
(-5.08527e-21 154.741 254.279)
(-6.11733e-21 129.368 232.363)
(-7.20761e-21 128.037 208.194)
(-2.07751e-21 112.629 197.97)
(2.26162e-20 109.835 179.744)
(3.77567e-20 97.9291 167.91)
(4.15524e-20 92.5561 152.815)
(4.42368e-20 83.7796 140.743)
(6.21257e-20 77.9776 127.582)
(6.79647e-20 71.7561 115.352)
(-7.75271e-20 67.1775 103.246)
(-4.36202e-19 63.5742 92.1254)
(-5.53517e-19 61.582 82.9659)
(5.8129e-19 61.7703 77.6581)
(4.27196e-18 63.8687 78.4756)
(1.17332e-17 67.4984 84.8619)
(2.26296e-17 68.6399 93.337)
(3.37498e-17 63.9161 93.5526)
(3.26071e-17 43.2893 71.2069)
(3.21965e-22 136.771 249.334)
(1.18471e-21 161.71 262.089)
(1.43103e-21 133.776 240.525)
(1.70873e-21 134.548 216.446)
(8.18654e-22 119.437 206.613)
(-4.41019e-21 117.604 189.359)
(-8.43643e-21 107.585 177.598)
(-9.73614e-21 102.758 163.155)
(-1.00069e-20 95.7834 150.912)
(-1.31588e-20 90.4303 138.765)
(-1.84905e-20 85.1156 127.622)
(-5.90328e-21 80.2788 116.993)
(4.98452e-20 75.6099 106.722)
(1.24355e-19 70.9669 96.6043)
(1.20059e-19 66.0782 86.6714)
(-1.41333e-19 61.0654 77.3279)
(-1.02142e-18 55.1838 69.1584)
(-3.19176e-18 48.67 61.2063)
(-7.25245e-18 36.7577 50.0414)
(-1.23361e-17 17.1163 19.8868)
(-7.17631e-23 142.448 263.194)
(-2.73171e-22 165.476 263.919)
(-3.30898e-22 134.979 246.694)
(-3.97094e-22 139.713 223.096)
(-2.61558e-22 122.428 214.261)
(8.23043e-22 122.124 196.608)
(1.83984e-21 111.303 185.579)
(2.26111e-21 107.108 171.245)
(2.27235e-21 99.7996 159.151)
(2.6223e-21 94.1998 146.34)
(3.97796e-21 88.1305 134.196)
(4.16618e-21 82.4242 122.178)
(-2.55642e-21 76.599 110.411)
(-1.89315e-20 70.6507 98.5087)
(-3.74322e-20 63.8569 86.2534)
(-3.72521e-20 56.2562 72.8381)
(2.69416e-20 46.0013 57.9509)
(2.66734e-19 34.5067 39.7154)
(1.11149e-18 15.0781 16.8543)
(5.45713e-19 -1.17466 -18.44)
(1.6067e-23 147.1 278.722)
(6.28645e-23 166.938 262.672)
(7.54721e-23 135.668 253.387)
(9.07071e-23 144.221 230.302)
(6.84819e-23 124.748 222.755)
(-1.61502e-22 126.157 205.106)
(-4.02795e-22 114.475 194.959)
(-5.15996e-22 111.294 181.021)
(-5.18277e-22 104.001 169.87)
(-5.47839e-22 99.3126 157.871)
(-8.01168e-22 93.878 146.627)
(-1.1009e-21 88.858 134.862)
(-4.93287e-22 83.0946 122.244)
(2.11735e-21 76.1901 107.625)
(6.73561e-21 66.747 90.2517)
(1.16328e-20 54.5248 69.0223)
(1.11381e-20 38.4115 46.0426)
(1.13133e-20 21.8904 20.375)
(-1.25497e-19 -4.67151 -8.90026)
(1.92747e-18 -17.9507 -48.2682)
(-3.628e-24 145.226 282.989)
(-1.48264e-23 163.624 256.973)
(-1.7705e-23 132.332 253.759)
(-2.13543e-23 141.478 231.719)
(-1.93631e-23 121.856 224.915)
(3.33091e-23 122.678 208.799)
(9.28632e-23 111.377 199.547)
(1.22104e-22 108.137 187.136)
(1.20312e-22 101.115 177.395)
(1.05135e-22 96.9033 167.096)
(1.13162e-22 91.8354 157.53)
(1.55842e-22 86.9718 146.874)
(2.42412e-22 80.4586 133.862)
(5.96851e-22 71.0599 115.878)
(9.23109e-22 56.2315 90.0507)
(-3.5148e-21 35.4004 55.2569)
(-1.94943e-20 12.4802 21.9091)
(-4.50763e-21 -3.78474 -5.59365)
(-3.16108e-20 -26.9298 -31.6927)
(1.35318e-18 -28.4795 -66.15)
(1.02294e-24 133.853 273.47)
(3.4933e-24 157.495 248.488)
(4.13261e-24 122.17 246.413)
(5.37793e-24 128.985 226.843)
(2.09137e-24 111.091 219.699)
(-1.26041e-23 108.138 206.303)
(-2.44415e-23 98.3028 197.007)
(-2.77409e-23 92.7843 186.422)
(-3.06708e-23 86.0443 177.267)
(-5.17899e-23 80.6724 168.211)
(-1.09681e-22 75.089 159.307)
(-1.30327e-22 69.1282 148.981)
(3.4481e-22 61.2216 135.085)
(2.19406e-21 49.439 113.823)
(3.05446e-21 31.004 80.2443)
(-1.3882e-20 6.55396 34.5303)
(-7.23039e-20 -14.0842 -7.32367)
(-1.22912e-19 -24.1356 -28.9926)
(-8.49495e-21 -31.4234 -41.3071)
(3.78401e-19 -24.3968 -41.1606)
(-2.41951e-25 108.441 253.479)
(-1.07908e-24 147.231 224.822)
(-1.562e-24 107.123 227.837)
(-1.23685e-24 112.644 213.03)
(1.33022e-24 96.5105 207.563)
(5.13795e-24 91.359 198.262)
(7.15169e-24 82.1112 191.064)
(7.44207e-24 75.4663 183.277)
(5.41433e-24 68.4569 176.076)
(-5.12532e-24 62.3195 168.943)
(-2.99571e-23 56.3683 161.882)
(-2.42319e-23 50.5348 154.201)
(1.95134e-22 44.3151 144.946)
(8.11464e-22 37.4685 133.063)
(1.03907e-21 30.2415 117.876)
(-2.81475e-21 23.5525 99.2211)
(-1.76914e-20 18.0193 77.7747)
(-4.58742e-20 12.9764 53.8707)
(-6.71836e-20 5.83765 24.5296)
(-3.55223e-20 -3.49249 -4.12132)
(1.22197e-25 35.5773 157.441)
(2.66515e-25 78.2896 129.976)
(1.36425e-25 52.6603 138.067)
(-2.98543e-25 52.6596 133.936)
(-8.78918e-25 44.2647 133.869)
(-1.19962e-24 39.9736 132.174)
(-1.09308e-24 35.0232 130.842)
(-8.9737e-25 31.1527 129.15)
(-8.11065e-25 27.6866 127.365)
(-4.19892e-25 24.9021 125.485)
(-7.8794e-25 22.764 123.673)
(-1.31753e-23 21.3768 122.041)
(-6.58083e-23 20.7607 120.581)
(-1.65722e-22 20.9003 119.069)
(-1.69925e-22 21.8572 117.016)
(3.33422e-22 23.4962 113.987)
(1.77664e-21 25.3922 109.834)
(3.75529e-21 29.668 102.462)
(4.37002e-21 32.7362 89.0919)
(1.85633e-21 7.34316 65.9106)
(-6.47945e-26 -35.5761 157.439)
(1.06439e-25 -78.2875 129.974)
(3.7964e-25 -52.6576 138.064)
(6.8217e-25 -52.6558 133.934)
(9.22175e-25 -44.2605 133.868)
(1.0705e-24 -39.9686 132.175)
(1.184e-24 -35.0177 130.845)
(1.33064e-24 -31.1463 129.154)
(1.31403e-24 -27.6778 127.368)
(5.27731e-25 -24.8881 125.481)
(-1.3465e-24 -22.7427 123.657)
(-2.8175e-24 -21.3488 122.012)
(-1.6485e-25 -20.7309 120.548)
(9.86537e-24 -20.8766 119.045)
(2.69164e-23 -21.8453 117.009)
(4.99327e-23 -23.4969 113.992)
(8.36268e-23 -25.4027 109.838)
(1.28238e-22 -29.6834 102.458)
(1.45781e-22 -32.7528 89.0899)
(7.15179e-23 -7.34834 65.9259)
(3.11028e-25 -108.446 253.486)
(2.74955e-25 -147.234 224.83)
(1.13952e-25 -107.131 227.851)
(-2.92496e-25 -112.653 213.048)
(-9.59196e-25 -96.5219 207.583)
(-1.73452e-24 -91.3725 198.285)
(-2.40924e-24 -82.127 191.088)
(-2.8916e-24 -75.4839 183.3)
(-3.13201e-24 -68.4755 176.095)
(-2.47425e-24 -62.3391 168.956)
(4.51044e-25 -56.391 161.893)
(5.11631e-24 -50.5622 154.218)
(4.03935e-24 -44.3406 144.967)
(-2.04006e-23 -37.4714 133.066)
(-9.66848e-23 -30.1958 117.825)
(-2.76214e-22 -23.4575 99.0967)
(-6.86991e-22 -17.9238 77.6173)
(-1.52395e-21 -12.9458 53.7977)
(-2.54585e-21 -5.89143 24.6117)
(-2.13074e-21 3.42775 -4.02012)
(-1.08836e-24 -133.852 273.48)
(9.8761e-26 -157.514 248.494)
(1.47242e-24 -122.173 246.417)
(2.82075e-24 -129 226.837)
(4.21723e-24 -111.098 219.69)
(5.80733e-24 -108.151 206.285)
(7.87659e-24 -98.3125 196.982)
(1.07343e-23 -92.7944 186.383)
(1.49045e-23 -86.051 177.212)
(2.22125e-23 -80.68 168.142)
(3.56673e-23 -75.1124 159.25)
(4.74437e-23 -69.192 148.979)
(2.40678e-23 -61.3453 135.178)
(-4.41353e-23 -49.6138 114.011)
(-2.49019e-23 -31.1564 80.4191)
(-4.19029e-24 -6.54882 34.4604)
(-1.40835e-21 14.2401 -7.64345)
(-5.31223e-21 24.2122 -29.1128)
(-7.29787e-21 31.3416 -41.2158)
(2.58452e-21 24.3465 -41.0077)
(4.6459e-24 -145.201 282.925)
(1.29186e-24 -163.591 256.934)
(-2.93221e-24 -132.316 253.715)
(-8.07862e-24 -141.459 231.677)
(-1.46897e-23 -121.847 224.868)
(-2.30374e-23 -122.664 208.749)
(-3.30357e-23 -111.367 199.482)
(-4.48988e-23 -108.113 187.062)