/*--------------------------------*- C++ -*----------------------------------*\
| =========                 |                                                 |
| \\      /  F ield         | OpenFOAM: The Open Source CFD Toolbox           |
|  \\    /   O peration     | Version:  4.1                                   |
|   \\  /    A nd           | Web:      www.OpenFOAM.org                      |
|    \\/     M anipulation  |                                                 |
\*---------------------------------------------------------------------------*/
FoamFile
{
    version     2.0;
    format      ascii;
    class       volScalarField;
    location    "4";
    object      p;
}
// * * * * * * * * * * * * * * * * * * * * * * * * * * * * * * * * * * * * * //

dimensions      [0 2 -2 0 0 0 0];

internalField   nonuniform List<scalar> 
1680
(
-10.7547
-7.09326
-2.94676
-4.46045
-5.99228
-3.38229
-4.54177
-5.99086
-3.2868
-4.89015
-5.6486
-5.10989
-6.0396
-3.81043
-5.60126
-6.93987
-5.63166
-9.40178
-1.35392
-13.9026
-1.24723
-20.1004
-0.222379
-2.37123
-0.691008
0.433964
1.379
2.13984
3.70064
3.87452
6.74205
-18.2884
-2.00602
-2.01928
-0.903816
-0.157539
1.06729
1.78152
5.19376
2.4696
-28.6536
-18.5295
-16.4441
0.379523
-6.34906
-6.60988
-4.32487
-1.0823
-2.84354
-2.77196
-3.03041
-2.94386
-2.85772
-2.78336
-3.45851
-3.27222
-3.21669
-3.07757
-3.36355
-3.12589
7.19956
5.50089
6.92873
4.80561
6.08884
5.21259
5.41701
6.13822
7.44715
5.39588
0.503138
-5.59605
-7.2375
-4.22162
-3.0439
3.02469
-1.53921
10.7231
-1.15189
6.61701
4.53488
6.26813
4.31444
5.70129
4.86819
5.23069
6.17775
7.33636
5.27993
-0.974576
-7.63083
-11.4435
-8.6011
-5.16879
3.55759
1.07571
10.993
-2.39365
5.79912
3.73092
5.54578
3.80512
5.25753
4.50777
5.03747
5.84658
7.22278
5.35659
-2.7697
-10.2223
-14.0632
-11.1001
-5.33126
4.77481
2.95965
8.64431
-5.18131
4.7966
3.06775
4.75893
3.28446
4.7738
4.14629
4.81255
5.34339
6.99124
5.55785
-4.7473
-12.9934
-14.3773
-12.2094
-5.17148
4.62107
3.7063
3.44672
1.81728
3.67751
2.54211
3.90339
2.75485
4.25928
3.7931
4.52892
4.6785
6.48812
5.82099
-6.71381
-15.697
-14.6767
-12.445
-5.26242
3.24642
3.9751
-1.30935
7.50138
2.42185
2.15317
2.9776
2.21788
3.71855
3.45769
4.21889
3.92287
5.69562
5.78771
-9.06384
-17.8194
-16.2047
-11.689
-5.35315
1.95761
2.93729
-1.93322
-1.20365
0.960054
1.87206
1.97239
1.66925
3.14916
3.14796
3.90838
3.09234
4.55349
5.05671
-11.9723
-18.1373
-17.8311
-10.9515
-5.50691
0.779703
2.23644
-2.20615
-2.70518
-0.782334
1.65758
0.884351
1.11251
2.56091
2.88443
3.61335
2.18849
3.02406
3.6478
-14.96
-17.8448
-18.2232
-10.5048
-5.66596
-0.249322
1.43479
-2.39731
-2.04341
-2.9149
1.47207
-0.322829
0.529534
1.93403
2.63319
3.30998
1.23165
1.14312
1.89917
-17.2045
-18.4297
-17.6689
-10.0001
-5.80666
-1.13293
0.74955
-2.53044
-2.08191
-5.3782
1.31009
-1.61921
-0.047475
1.3137
2.42143
3.06976
0.440344
-0.812537
0.214188
-17.5151
-19.1684
-16.6521
-9.62062
-5.92373
-1.89029
0.111532
-2.72898
-2.18147
-8.40338
1.14132
-3.13098
-0.70302
0.557718
2.052
2.77779
-0.042475
-2.45669
-1.20602
-15.3594
-19.4275
-15.3513
-9.35178
-6.02876
-2.51397
-0.451565
-2.85248
-2.34965
-11.4246
1.02081
-4.59086
-1.24951
-0.170688
1.6274
2.55086
0.0909446
-3.10168
-2.1431
-11.7945
-18.9126
-14.1044
-9.15602
-6.16153
-3.04077
-0.969136
-2.99538
-2.46268
-15.8828
0.817652
-6.64897
-2.13389
-1.45693
0.65277
1.77173
0.0908235
-3.12189
-2.98312
-8.21192
-17.7577
-12.9007
-8.96471
-6.28972
-3.48491
-1.44983
-3.15608
-2.62405
-18.2963
0.837857
-7.7157
-2.31601
-1.90106
0.390641
1.59401
0.728327
-2.19494
-3.8968
-6.16856
-16.3054
-11.7812
-8.67277
-6.28221
-3.77069
-1.8326
-3.23343
-2.74555
-27.4732
0.384726
-11.5309
-4.19942
-4.62177
-1.95081
-0.690126
-0.720741
-3.02307
-5.44968
-6.48403
-14.7695
-11.0886
-8.57581
-6.40186
-4.10053
-2.22932
-3.35664
-2.89219
-21.9613
1.07894
-9.0188
-2.22419
-2.20143
0.271598
1.55055
1.54934
-1.16331
-5.01293
-7.27574
-13.1881
-11.1534
-9.12527
-7.09469
-4.87076
-2.91755
-3.74902
-3.30353
-55.1873
-0.727077
-21.6147
-9.18465
-11.7741
-8.13143
-6.88455
-5.07117
-5.31489
-4.11441
-7.2984
-10.9365
-9.8231
-8.21403
-6.52283
-4.63807
-2.93357
-3.53343
-3.10402
4.37192
3.19093
2.05306
4.36696
6.46602
7.70983
9.19536
8.23076
3.21769
-1.90152
-5.93809
-7.1607
-6.56014
-5.41959
-4.19363
-2.8856
-1.85374
-2.43906
-2.13537
-167.865
-5.18643
-58.2934
-28.8104
-39.1673
-31.2874
-30.2384
-22.7219
-13.7348
-1.70269
-8.94356
-12.8117
-14.1071
-13.0569
-10.995
-8.45232
-5.81295
-5.87871
-5.41253
273.981
6.86065
94.1336
48.5725
70.4193
59.5233
60.8732
47.2048
22.6129
-0.300904
-11.7781
-19.5006
-22.355
-21.5299
-18.7397
-14.9383
-10.4615
-9.77374
-9.17189
93.7486
92.8414
92.267
91.1473
90.1377
89.0226
88.0176
86.9221
85.9467
84.9256
83.9887
83.0804
82.0916
81.0111
80.0698
79.1603
78.3772
77.5908
77.0975
76.2851
74.6707
75.0597
75.1893
75.3851
75.4917
75.5565
75.603
75.5892
75.5772
75.5067
75.442
75.3393
75.2081
75.0579
74.905
74.7462
74.5992
74.4358
74.3136
74.1389
81.0052
80.871
80.7904
80.6773
80.5785
80.4613
80.3503
80.2266
80.1048
79.9768
79.8452
79.7125
79.5745
79.4384
79.2923
79.1536
79.0117
78.8686
78.7554
78.5742
77.8669
77.9558
77.9932
78.043
78.0839
78.116
78.1493
78.17
78.192
78.2048
78.2148
78.2219
78.2213
78.2243
78.217
78.2163
78.2063
78.2032
78.1964
78.1917
78.9013
78.8876
78.8859
78.8693
78.8687
78.8522
78.8501
78.8352
78.83
78.8173
78.8087
78.7981
78.7871
78.7784
78.766
78.7598
78.7473
78.7439
78.7352
78.7304
78.3707
78.3812
78.4001
78.3958
78.4146
78.4086
78.4227
78.4178
78.4269
78.424
78.4294
78.4284
78.4315
78.4328
78.4344
78.4398
78.4392
78.4515
78.4456
78.4634
78.7058
78.6722
78.6773
78.6407
78.639
78.6056
78.5961
78.566
78.5505
78.5224
78.5029
78.4758
78.4543
78.4282
78.4052
78.3821
78.3562
78.3412
78.3016
78.2904
79.0632
79.0068
79.0021
78.9478
78.9304
78.8809
78.8524
78.8048
78.7679
78.7197
78.6765
78.6258
78.5781
78.5236
78.4725
78.4149
78.3593
78.3037
78.2205
78.1599
79.8291
79.7505
79.7327
79.6643
79.631
79.5688
79.5241
79.4633
79.4097
79.3471
79.2861
79.2192
79.1521
79.078
79.0064
78.9223
78.8475
78.7552
78.6475
78.5273
80.73
80.6495
80.6277
80.5607
80.5249
80.4651
80.4203
80.3627
80.3108
80.2525
80.1944
80.1327
80.0691
80.0007
79.9338
79.8531
79.7876
79.6886
79.6125
79.4617
81.6407
81.5698
81.5499
81.4917
81.4612
81.4113
81.3753
81.3296
81.2899
81.246
81.2032
81.1594
81.1141
81.0678
81.0222
80.9675
80.9288
80.8521
80.8344
80.7053
82.4219
82.3625
82.346
82.2976
82.2734
82.2334
82.2064
82.1717
82.1435
82.1129
82.0842
82.0567
82.0282
82.0025
81.976
81.9484
81.9304
81.8876
81.9002
81.8314
83.0726
83.0198
83.005
82.9625
82.9415
82.9068
82.8837
82.8543
82.831
82.8061
82.7832
82.7625
82.7409
82.7239
82.7046
82.69
82.6766
82.6574
82.6636
82.6461
83.6237
83.5741
83.5598
83.5206
83.5006
83.4678
83.4456
83.4175
83.3946
83.3704
83.3476
83.327
83.3051
83.288
83.2677
83.2534
83.2366
83.2228
83.2138
83.2102
84.1085
84.0621
84.0483
84.0118
83.9925
83.9612
83.9394
83.9119
83.8887
83.8641
83.8404
83.8184
83.7946
83.7752
83.7518
83.7342
83.7134
83.6951
83.6796
83.6642
84.539
84.4966
84.4833
84.4497
84.4321
84.4027
84.3822
84.3566
84.3342
84.3109
84.2879
84.2662
84.2425
84.2229
84.1982
84.1801
84.1567
84.1357
84.1194
84.0915
84.9369
84.8985
84.884
84.8513
84.8349
84.8063
84.786
84.7616
84.7395
84.7169
84.6947
84.6734
84.6509
84.6319
84.6078
84.5923
84.5672
84.5499
84.534
84.5029
85.3366
85.3088
85.2975
85.2649
85.2518
85.2262
85.2064
85.1838
85.1615
85.1386
85.1151
85.0912
85.0661
85.0422
85.014
84.9939
84.9599
84.9449
84.9188
84.8817
85.6104
85.6011
85.6162
85.5956
85.5957
85.5884
85.5836
85.5783
85.5727
85.5662
85.5585
85.5491
85.537
85.5223
85.5019
85.481
85.4424
85.4211
85.3492
85.2924
85.5757
85.5174
85.5555
85.5662
85.5837
85.6014
85.6202
85.6409
85.6635
85.6886
85.7164
85.7475
85.7822
85.821
85.8645
85.9135
85.9662
86.0348
86.0761
86.2393
-3.05097
-3.21498
-3.28026
-3.31611
-3.34234
-3.39283
-3.35658
-3.37729
-3.41535
-3.41228
-3.39863
-3.42842
-3.48474
-4.73479
-5.85312
-6.02578
-3.97332
-13.726
-15.6822
-26.3867
-3.87169
-1.01603
-2.34649
-1.86106
-2.344
-2.4539
-2.60575
-3.0373
-17.6858
2.05861
0.64806
0.972739
0.305338
0.161923
-0.552115
-0.536992
-0.00388481
-1.45617
-26.0728
-10.9181
-23.9595
-9.66701
-21.5888
-16.0223
-19.3205
-15.7739
-12.727
-17.0404
-14.4426
-15.3175
-13.6767
-12.7133
-15.1482
-14.5215
-15.1606
-16.263
-16.2817
-16.2167
-16.1722
-16.2101
13.0021
11.3744
8.31365
6.28628
6.83338
8.79247
10.1755
10.3806
10.4426
10.6099
8.92326
7.35511
15.2479
29.7162
40.0428
8.83152
-41.9358
-37.002
-18.6003
12.9852
11.3068
8.22159
6.14658
6.65841
8.71916
10.1562
10.3966
10.4522
10.6354
8.77464
6.86521
14.7013
28.9288
38.7826
6.74871
-44.8732
-39.5434
-18.8871
12.9702
11.2653
8.12123
6.00557
6.36972
8.39172
9.94821
10.2941
10.3929
10.6015
8.49665
6.17786
13.8474
27.4623
36.4935
4.07996
-48.8929
-44.6789
-19.753
12.9979
11.2883
7.99789
5.89953
6.14025
7.99301
9.57166
10.0652
10.3023
10.5602
8.00511
4.92138
12.3897
25.1451
33.3818
0.604809
-53.2945
-49.0902
-21.3137
13.0828
11.3693
7.84427
5.81542
5.91544
7.60733
9.12969
9.74832
10.1617
10.5098
7.20389
2.92843
10.1925
22.1057
29.6043
-3.2651
-57.4779
-53.2806
-22.9115
13.2081
11.5072
7.75239
5.78608
5.74373
7.23316
8.64258
9.34978
9.94546
10.4193
5.95662
0.175126
7.32593
18.8739
25.5937
-7.13662
-60.9424
-56.9269
-24.8323
13.3142
11.6912
7.86039
5.77782
5.6036
6.85588
8.12554
8.88438
9.64683
10.2438
4.21364
-2.61834
4.60897
16.4398
22.1618
-10.3032
-63.006
-59.1407
-26.4589
13.3762
11.8697
8.05615
5.78093
5.46208
6.48143
7.60487
8.37207
9.2693
9.93502
2.10306
-4.27301
3.04118
15.3787
19.6701
-12.2027
-63.7232
-59.8214
-27.7643
13.4191
11.9845
8.3156
5.7932
5.33977
6.11478
7.08703
7.82394
8.81691
9.46637
-0.0584331
-4.74679
2.69377
15.2546
17.6452
-12.7312
-63.0192
-59.3013
-28.6624
13.4563
11.9942
8.62342
5.82789
5.27034
5.76699
6.57673
7.24435
8.30032
8.86308
-1.84418
-5.40541
2.84449
15.2822
15.1385
-12.0395
-60.5996
-57.8459
-28.4313
13.4494
11.8941
8.95926
5.91506
5.28381
5.46103
6.08643
6.63939
7.75529
8.21917
-2.42364
-6.40443
3.12116
14.7855
11.4307
-10.4092
-56.4952
-55.2531
-28.2237
13.3169
11.7025
9.26703
6.07783
5.39306
5.22581
5.64109
6.0343
7.27765
7.61399
-0.899838
-6.81543
3.31207
13.3496
7.07066
-8.11281
-51.7548
-52.1024
-25.9927
13.014
11.411
9.44657
6.28515
5.59636
5.09954
5.30053
5.51426
7.0039
6.9539
1.5248
-6.24368
2.65998
11.5989
4.57529
-5.2662
-49.0085
-47.7865
-24.7913
12.5359
10.9879
9.47537
6.45255
5.86995
5.11872
5.16212
5.23514
7.11454
6.12098
2.25015
-5.97781
1.66572
10.6447
5.31212
-1.56748
-44.9826
-44.1438
-26.5675
11.9215
10.4428
9.37879
6.5194
6.17572
5.27998
5.28173
5.28648
7.47026
5.70734
2.06319
-5.20594
1.53678
10.1811
6.68736
1.62783
-34.2886
-35.3935
-20.0706
11.212
9.80381
9.17916
6.47299
6.44943
5.50881
5.57166
5.51223
7.87238
7.17383
1.91325
-4.79216
1.59366
9.64892
7.24805
3.43819
-21.0926
-15.155
-1.95907
10.4478
9.08123
8.88369
6.30824
6.63109
5.70085
5.84713
5.62124
7.66692
7.24601
2.08176
-4.26313
1.08576
8.60642
6.91465
3.9465
-11.7561
1.01153
-1.76965
9.63938
8.2956
8.50467
6.03816
6.68561
5.77964
5.95825
5.63348
8.06227
6.63064
2.19844
-3.7121
0.230194
7.07839
6.09154
4.03322
-6.93843
9.06184
-2.73051
8.83198
7.42899
8.04866
5.68371
6.60397
5.70857
5.83635
5.58301
8.33245
6.15945
1.97346
-3.6847
-1.12506
4.54281
4.18068
4.1647
-5.72578
11.3849
-0.897674
7.98301
6.52844
7.52366
5.26699
6.39807
5.50796
5.62049
5.76271
7.82808
5.73384
1.49243
-4.29989
-3.55026
0.647063
0.795734
3.85045
-3.70684
10.7246
-1.06775
677.324
594.771
545.661
489.6
440.783
393.777
350.147
309.013
270.357
233.866
199.341
166.568
135.349
105.601
77.2861
49.6612
22.7667
0.0929943
-24.7895
-59.1325
-10.9355
-32.6744
-24.4341
-35.0391
-37.5434
-43.8834
-48.6272
-53.7422
-58.2523
-62.3724
-65.8556
-68.6051
-70.4811
-71.409
-71.2566
-70.067
-68.1504
-65.0539
-60.8575
-57.9243
-10.5158
-16.2666
-7.18928
-13.1808
-10.0829
-12.4269
-12.5889
-14.0792
-15.2433
-16.6959
-18.0585
-19.2921
-20.2145
-20.8133
-21.1217
-21.1845
-21.1934
-21.3475
-21.1596
-20.2402
4.71605
-0.0986267
2.31871
-4.33921
-3.80266
-8.14227
-9.66584
-12.5275
-14.5738
-16.7775
-18.6568
-20.3491
-21.7674
-23.0635
-24.341
-25.6694
-26.9505
-28.4043
-31.1198
-34.0375
-47.0695
-52.8888
-52.174
-57.8009
-57.8546
-62.1813
-63.6496
-66.8713
-69.1227
-71.9195
-74.4151
-76.8581
-78.8188
-80.2755
-81.2622
-82.1256
-82.9133
-83.289
-84.0309
-83.1578
-79.5862
-83.5013
-81.7173
-85.2989
-84.0471
-86.8962
-86.8157
-88.6554
-89.3796
-90.6281
-91.4881
-92.1524
-92.2402
-91.7625
-90.9703
-89.9874
-88.8631
-87.2693
-85.8037
-82.4177
-66.2188
-66.7662
-63.5994
-64.9365
-61.8247
-62.3899
-60.258
-59.7298
-58.2921
-57.2138
-55.9743
-54.7303
-53.4032
-51.9201
-50.2768
-48.332
-46.1605
-43.378
-40.9538
-37.6795
-35.9635
-34.838
-32.0563
-32.2582
-29.1928
-28.8236
-26.4711
-25.2634
-23.43
-21.8247
-20.1283
-18.4328
-16.7482
-15.0639
-13.4306
-11.8176
-10.3458
-8.91965
-7.84097
-6.47872
-15.7427
-14.7731
-13.0969
-13.2142
-11.1991
-11.0879
-9.5199
-8.89341
-7.75622
-6.88678
-5.94829
-5.07298
-4.24647
-3.4631
-2.77221
-2.1256
-1.63724
-1.15693
-0.957481
-0.623114
-6.21787
-5.76382
-4.82011
-5.0422
-3.84192
-4.0347
-3.08477
-2.96834
-2.35755
-2.04948
-1.63332
-1.29554
-0.980259
-0.681396
-0.449099
-0.194177
-0.063626
0.173668
0.180729
0.447846
-1.8342
-1.57862
-0.891216
-1.12719
-0.284088
-0.545415
0.138598
0.090551
0.513496
0.652448
0.926591
1.14358
1.36958
1.61493
1.82169
2.10038
2.26754
2.62096
2.7014
3.20909
2.2338
2.63241
3.32648
3.21517
4.02269
3.90927
4.57873
4.65136
5.11367
5.36548
5.73152
6.07584
6.43845
6.83686
7.21349
7.66873
8.02381
8.57099
8.81411
9.55551
8.24923
8.89456
9.59808
9.66919
10.5097
10.6181
11.3264
11.612
12.1601
12.5899
13.0856
13.5841
14.0927
14.6332
15.1538
15.7383
16.2302
16.8844
17.2546
18.0129
16.2651
17.0558
17.6316
17.8543
18.6172
18.8861
19.5523
19.9739
20.5381
21.0552
21.5995
22.1543
22.7092
23.2864
23.8383
24.441
24.9485
25.6033
25.9752
26.7262
24.8226
25.648
26.0444
26.3855
26.987
27.3315
27.8952
28.3453
28.8601
29.3637
29.8754
30.3962
30.9118
31.4426
31.9459
32.4919
32.9455
33.5355
33.8544
34.5524
33.8433
34.5049
34.755
35.0868
35.4929
35.7752
36.172
36.5164
36.89
37.2638
37.6394
38.0225
38.4004
38.791
39.1589
39.564
39.8935
40.3388
40.5651
41.0953
39.7248
40.2806
40.5258
40.8122
41.1632
41.3696
41.6764
41.9228
42.1924
42.4561
42.7193
42.9868
43.2491
43.5214
43.7769
44.0613
44.291
44.6073
44.766
45.1414
47.8744
47.9974
48.121
48.065
48.2078
48.1084
48.1697
48.1384
48.1445
48.1415
48.1422
48.1487
48.158
48.1774
48.191
48.229
48.2421
48.308
48.3075
48.3879
44.9667
45.3837
45.3781
45.5089
45.9361
45.9788
46.2462
46.2441
46.3365
46.3298
46.3352
46.3173
46.2714
46.2223
46.1676
46.122
46.0696
46.0388
46.0027
45.9847
62.8255
62.1801
61.6466
60.5403
59.7113
58.4644
57.6013
56.5661
55.723
54.8292
53.9963
53.1651
52.3286
51.5631
50.8605
50.2228
49.6755
49.1766
48.8792
48.4551
)
;

boundaryField
{
    outletWallLeft
    {
        type            fixedValue;
        value           uniform 0;
    }
    fineWallsLeft
    {
        type            zeroGradient;
    }
    fineFrontAndBackLeft
    {
        type            zeroGradient;
    }
    fineplugLeft
    {
        type            cyclicAMI;
        value           nonuniform List<scalar> 
20
(
74.7494
79.7224
73.7691
72.4436
71.9719
71.3049
70.6898
69.9657
69.4975
68.7154
68.5394
71.3057
65.2721
64.4051
63.8751
63.2968
62.9152
62.4289
62.7168
61.522
)
;
    }
    symmetryWallLeft
    {
        type            cyclicAMI;
        value           nonuniform List<scalar> 
20
(
-3.08843
-1.10982
10.7238
-2.62303
3.43757
-1.12409
-1.78728
-5.39388
-4.94797
0.997784
5.56486
7.63761
5.95047
5.51875
5.36027
6.24345
5.0363
7.22619
6.01467
7.59129
)
;
    }
    inletOutletLeft
    {
        type            cyclicAMI;
        value           nonuniform List<scalar> 
20
(
61.522
62.7168
62.4289
62.9152
63.2968
63.8751
64.4051
65.2721
71.3057
68.5394
68.7154
69.4975
69.9657
70.6898
71.3049
71.9719
72.4436
73.7691
79.7224
74.7494
)
;
    }
    inletLeft
    {
        type            zeroGradient;
    }
    inletWallsLeft
    {
        type            zeroGradient;
    }
    inletFacesLeft
    {
        type            zeroGradient;
    }
    fineWallsRight
    {
        type            zeroGradient;
    }
    outletWallRight
    {
        type            zeroGradient;
    }
    fineplugRight
    {
        type            cyclicAMI;
        value           nonuniform List<scalar> 
20
(
37.9898
38.9002
38.872
39.3682
39.7095
40.1977
40.7294
41.2555
44.9352
43.6087
43.9929
44.773
45.314
46.1134
46.6611
47.6617
48.4315
49.0261
51.9289
48.0768
)
;
    }
    fineFrontAndBackRight
    {
        type            zeroGradient;
    }
    symmetryWallRight
    {
        type            cyclicAMI;
        value           nonuniform List<scalar> 
20
(
-3.08843
-1.10982
10.7238
-2.62303
3.43757
-1.12409
-1.78728
-5.39388
-4.94797
0.997784
5.56486
7.63761
5.95047
5.51875
5.36027
6.24345
5.0363
7.22619
6.01467
7.59129
)
;
    }
    inletOutletRight
    {
        type            cyclicAMI;
        value           nonuniform List<scalar> 
20
(
37.9898
38.9002
38.872
39.3682
39.7095
40.1977
40.7294
41.2555
44.9352
43.6087
43.9929
44.773
45.314
46.1134
46.6611
47.6617
48.4315
49.0261
51.9289
48.0768
)
;
    }
    inletRight
    {
        type            zeroGradient;
    }
    inletWallsRight
    {
        type            zeroGradient;
    }
    inletFacesRight
    {
        type            zeroGradient;
    }
}


// ************************************************************************* //
