/*--------------------------------*- C++ -*----------------------------------*\
| =========                 |                                                 |
| \\      /  F ield         | OpenFOAM: The Open Source CFD Toolbox           |
|  \\    /   O peration     | Version:  4.1                                   |
|   \\  /    A nd           | Web:      www.OpenFOAM.org                      |
|    \\/     M anipulation  |                                                 |
\*---------------------------------------------------------------------------*/
FoamFile
{
    version     2.0;
    format      ascii;
    class       surfaceScalarField;
    location    "4";
    object      phi;
}
// * * * * * * * * * * * * * * * * * * * * * * * * * * * * * * * * * * * * * //

dimensions      [0 3 -1 0 0 0 0];

internalField   nonuniform List<scalar> 
3120
(
6149.08
-38.3592
6149.08
6078.09
70.9861
6078.09
6103.95
-25.8593
6118.09
-14.1459
6118.09
6188.76
-70.663
6251.03
-62.2707
6251.03
6368.42
-117.399
6368.43
6530.33
-161.902
6718.62
-188.288
6718.61
7001.22
-282.601
7001.21
7555.76
-554.548
7634.19
-78.4252
7634.19
8473.12
9972.61
-516.645
10929.2
11884.5
12845.5
13806.3
14770
15733.1
16698.7
17665.1
18636
16688
2914.38
17676.6
18671.4
19670.9
20680.2
21708.8
22774.8
23875.9
24736.5
17451.4
7285.06
17451.4
17451.4
8839.44
8611.97
8839.44
8839.44
8839.44
1971.03
6868.4
1971.03
1971.02
-809.032
2780.05
-809.042
-809.052
-809.057
-1499.22
690.161
-1499.23
-1499.23
-1499.23
-1027.83
-471.402
12.2723
8261.01
-652.373
10297.4
-1168.29
7532.89
-1957.43
7168.97
-2639.74
5541.19
-2995.63
5738.41
-2841.85
5532.93
-2387.1
2997.91
-2505.6
-442.087
-3369.65
1115.11
-4767.29
4680.06
-6606.85
6488.82
-7973.05
5660.03
-7818.36
-601.605
-6974.63
-8480.05
-6899.19
-13496.6
-6489.91
-14240.8
-3379.32
-10689.5
-5189.47
-37.139
8179.9
-578.845
10839.1
-1005.42
7959.47
-1667.64
7831.2
-2269.96
6143.51
-2547.49
6015.94
-2491.37
5476.81
-2667.94
3174.49
-3236.4
126.377
-3883.02
1761.73
-5089.93
5886.97
-6726.15
8125.03
-7048.04
5981.92
-5270.9
-2378.74
-3838.61
-9912.34
-5048.1
-12287.1
-7165.11
-12123.8
-5817.79
-12036.8
-10317.1
-97.2872
8173.56
-529.249
11271.1
-898.61
8328.83
-1442.72
8375.31
-1969.5
6670.29
-2192.2
6238.64
-2257.09
5541.7
-2923.54
3840.94
-3917.55
1120.38
-4542.62
2386.8
-5549.54
6893.89
-6618.84
9194.33
-5454.54
4817.62
-2603.46
-5229.82
-1142.8
-11373
-2692.52
-10737.4
-6526.81
-8289.51
-7592.45
-10971.1
-15129.5
-179.447
8268.79
-501.164
11592.8
-836.277
8663.94
-1276.62
8815.66
-1739.37
7133.04
-1912.38
6411.65
-2027.07
5656.39
-3022.39
4836.27
-4579.05
2677.04
-5499.68
3307.44
-6274.49
7668.7
-6415.51
9335.36
-4024.45
2426.56
-1272.19
-7982.08
-519.997
-12125.2
-1277.61
-9979.78
-4664.06
-4903.05
-7996.81
-7638.39
-16257.9
-322.947
8530.21
-492.198
11762.1
-807.62
8979.36
-1160.04
9168.08
-1575.29
7548.28
-1693.31
6529.68
-1717.03
5680.11
-2682.89
5802.13
-4677.67
4671.82
-6236.57
4866.33
-6919.5
8351.63
-5851.77
8267.63
-2715.44
-709.766
-586.14
-10111.4
-470.559
-12240.8
-525.311
-9925.03
-1955.99
-3472.38
-5791.56
-3802.81
-13437.5
-523.148
9016.66
-490.158
11729.1
-801.719
9290.92
-1082.49
9448.85
-1465.33
7931.12
-1518.45
6582.8
-1355.42
5517.08
-1971.51
6418.22
-4022.3
6722.61
-6173.64
7017.67
-6838.4
9016.39
-4577.74
6006.97
-1432.36
-3855.14
-194.046
-11349.7
-260.031
-12174.8
-299.407
-9885.66
343.678
-4115.46
-1485.9
-1973.23
-7638.34
-715.038
9720.69
-478.397
11492.4
-807.725
9620.25
-1033
9674.13
-1391.61
8289.73
-1364.59
6555.77
-997.674
5150.16
-1160.98
6581.53
-2887.25
8448.88
-5268.51
9398.93
-5935.87
9683.75
-3223.61
3294.71
-559.319
-6519.43
41.7
-11950.7
-94.3096
-12038.8
-228.905
-9751.06
119.807
-4464.18
849.175
-2702.6
-3874.79
-838.478
10574
-449.348
11103.3
-816.5
9987.4
-1000.11
9857.74
-1338.73
8628.35
-1229.75
6446.8
-703.063
4623.48
-532.476
6410.94
-1766.84
9683.25
-3954.09
11586.2
-4626.51
10356.2
-2175.88
844.076
-89.3021
-8606.01
220.334
-12260.4
-4.53393
-11813.9
-213.005
-9542.59
-15.4451
-4661.74
488.47
-3206.51
-3902.97
-881.498
11497.1
-407.881
10629.7
-821.628
10401.1
-972.663
10008.8
-1314.94
8970.63
-1232.84
6364.69
-731.254
4121.89
-404.702
6084.39
-1086.17
10364.7
-2702.07
13202.1
-3208.09
10862.2
-1180.8
-1183.22
302.266
-10089.1
335.263
-12293.4
43.8343
-11522.5
-245.886
-9252.87
-143.361
-4764.26
157.129
-3507
-3824.26
-867.738
12432.9
-364.787
10126.7
-820.566
10856.9
-945.127
10133.3
-1358.33
9383.84
-1617.12
6623.49
-1517.68
4022.45
-1091.85
5658.56
-1080.1
10353
-1838.18
13960.2
-1929.01
10953
-363.983
-2748.25
603.769
-11056.8
411.234
-12100.8
46.3058
-11157.5
-316.791
-8889.77
-259.331
-4821.72
148.88
-3915.21
-4229.93
-828.733
13358.9
-329.617
9627.62
-814.506
11341.8
-918.436
10237.3
-1445.25
9910.65
-2254.17
7432.4
-2869.32
4637.61
-2530.14
5319.38
-1914.33
9737.15
-1747.6
13793.4
-1134.74
10340.2
152.357
-4035.34
725.899
-11630.4
449.239
-11824.2
-1.58478
-10706.7
-403.805
-8487.55
-327.635
-4897.89
-10.5133
-4232.34
-4523.05
-785.581
14267.3
-307.114
9149.16
-806.888
11841.6
-894.77
10325.1
-1469.68
10485.6
-2634.69
8597.41
-3981.14
5984.06
-4208.45
5546.68
-3541.18
9069.89
-2623.48
12875.7
-820.157
8536.85
609.413
-5464.91
736.861
-11757.8
418.235
-11505.5
-91.8252
-10196.7
-474.75
-8104.63
-358.448
-5014.19
-42.4531
-4548.33
-4753.79
-756.533
15183.3
-302.162
8694.78
-799.029
12338.5
-873.746
10399.9
-1399.22
11011
-2563.17
9761.36
-4339.1
7759.99
-5368.39
6575.97
-5148.08
8849.58
-3698.47
11426.1
-723.326
5561.7
997.526
-7185.77
765.689
-11526
324.415
-11064.3
-198.007
-9674.24
-505.77
-7796.87
-356.839
-5163.12
-55.565
-4849.6
-4971.25
-731.569
16087.7
-309.867
8273.08
-793.22
12821.8
-860.148
10466.8
-1291.19
11442.1
-2210.91
10681.1
-3965.08
9514.16
-5486.44
8097.33
-5689.99
9053.13
-3890.85
9626.99
-558.833
2229.68
1063.35
-8807.95
749.793
-11212.4
197.047
-10511.5
-282.323
-9194.87
-496.321
-7582.87
-338.91
-5320.53
-93.5756
-5094.94
-5182.23
-762.122
17093.1
-355.127
7866.09
-783.716
13250.4
-840.961
10524
-1187.19
11788.3
-1810.02
11303.9
-3219.01
10923.2
-4756.29
9634.61
-5091.33
9388.17
-2945.4
7481.06
73.8817
-789.596
978.677
-9712.74
615.208
-10849
58.2058
-9954.51
-322.089
-8814.58
-462.133
-7442.83
-310.758
-5471.91
-93.4771
-5312.22
-5337.98
-742.232
18020.1
-394.067
7517.92
-795.777
13652.1
-855.748
10584
-1138.4
12071
-1519.24
11684.7
-2459.54
11863.5
-3654.64
10829.7
-3886.42
9619.95
-1523.23
5117.87
869.134
-3181.96
928.548
-9772.16
424.21
-10344.6
-52.8166
-9477.49
-318.765
-8548.63
-414.629
-7346.96
-273.415
-5613.12
-76.0774
-5509.56
-5484.72
-894.217
19344.4
-522.031
7145.74
-703.335
13833.4
-739.989
10620.7
-981.788
12312.8
-1235.23
11938.2
-1823.92
12452.1
-2649.84
11655.6
-2821.65
9791.76
-775.71
3071.92
1010.85
-4968.52
781.862
-9543.17
235.802
-9798.55
-106.413
-9135.27
-288.303
-8366.74
-355.489
-7279.78
-227.983
-5740.63
-77.4855
-5660.06
-5576.35
-1127.28
20441
-764.221
6782.67
-1122.2
14191.4
-1186.43
10684.9
-1382.96
12509.3
-1511.74
12067
-1722.57
12663
-1969.73
11902.8
-1777.75
9599.79
-56.9498
1351.12
1096.41
-6121.89
575.525
-9022.28
97.6779
-9320.71
-120.375
-8917.22
-254.896
-8232.22
-298.231
-7236.44
-183.314
-5855.54
-62.094
-5781.27
-5664.3
623.765
20985.7
213.986
7192.45
908.562
13496.8
839.534
10753.9
614.289
12734.5
260.271
12421
-263.221
13186.5
-937.099
12576.7
-1478.14
10140.8
103.189
-230.211
855.67
-6874.37
337.367
-8503.97
20.7996
-9004.14
-116.422
-8780
-214.532
-8134.11
-244.687
-7206.29
-135.184
-5965.05
-65.375
-5851.08
-5658.69
-11746.7
-6424.13
-8676.3
-7681.16
-7645.6
-6664.64
-5391.3
-3374.87
-122.007
989.503
290.707
73.2616
-7.83937
-56.01
-91.4871
-109.265
-43.8143
0.00566464
51.4074
-890.336
98.3365
-1029.77
138.575
-996.79
171.728
-988.501
194.475
-983.768
209.963
-976.232
218.829
-972.562
223.425
-967.759
224.773
-966.874
223.982
-965.686
220.24
-967.146
218.605
-964.744
199.518
-969.456
178.102
-973.449
157.07
-978.403
136.227
-988.477
118.982
-1011.33
108.509
-1055.55
103.094
-1095.67
-757.501
-23.4459
-866.89
-17.5236
-1035.7
-23.0699
-991.243
-22.7486
-988.821
-21.9026
-984.614
-18.4426
-979.691
-14.7071
-976.297
-9.18438
-973.281
-3.66952
-972.388
2.28573
-971.641
7.97556
-972.836
17.8466
-974.614
24.6634
-976.272
28.8484
-977.633
32.0273
-981.581
32.499
-988.948
31.7255
-1010.55
33.2232
-1057.04
43.8359
-1106.28
-713.665
-36.4689
-830.42
-23.3652
-1048.8
-21.1927
-993.415
-19.3094
-990.704
-16.2966
-987.626
-11.6391
-984.349
-5.9402
-981.995
0.93943
-980.16
8.01461
-979.463
15.4775
-979.103
22.3897
-979.748
27.8863
-980.111
33.729
-982.115
39.36
-983.264
43.9776
-986.198
45.8139
-990.784
42.0297
-1006.77
38.3432
-1053.36
38.2298
-1106.17
-675.435
-28.4156
-802.005
-23.0023
-1054.21
-21.316
-995.101
-19.5512
-992.469
-15.864
-991.313
-10.9389
-989.273
-4.59122
-988.343
2.48661
-987.238
10.0136
-986.99
17.5031
-986.593
24.6878
-986.932
31.7454
-987.168
37.8771
-988.246
43.6435
-989.03
48.3784
-990.933
50.9875
-993.393
47.6343
-1003.42
42.8642
-1048.59
35.5551
-1098.86
-639.88
-21.0429
-780.961
-17.3941
-1057.86
-12.9232
-999.572
-10.0671
-995.325
-5.74234
-995.638
-0.661874
-994.354
5.33266
-994.337
11.6971
-993.602
18.2741
-993.567
24.8475
-993.166
31.1275
-993.212
37.1081
-993.148
42.4554
-993.593
47.4866
-994.061
51.5286
-994.975
53.832
-995.697
51.5667
-1001.15
48.2452
-1045.27
35.8229
-1086.44
-604.058
-11.4265
-769.535
-9.67115
-1059.62
-5.46503
-1003.78
-2.89438
-997.895
0.503436
-999.036
4.36611
-998.216
8.67145
-998.643
13.216
-998.147
17.9229
-998.274
22.7106
-997.953
27.4245
-997.926
32.0808
-997.805
36.3491
-997.862
40.3767
-998.089
43.6779
-998.276
45.7468
-997.766
46.0876
-1001.49
47.3409
-1046.52
34.352
-1073.45
-569.705
-3.34334
-766.192
-2.69954
-1060.26
-0.451565
-1006.03
0.537662
-998.885
1.81999
-1000.32
3.48791
-999.884
5.33853
-1000.49
7.47875
-1000.29
9.79409
-1000.59
12.3354
-1000.49
15.0179
-1000.61
17.8201
-1000.61
20.6168
-1000.66
23.3622
-1000.83
25.7703
-1000.68
27.542
-999.537
30.1995
-1004.15
35.4194
-1051.74
25.1652
-1063.19
-544.54
1.76235
-767.954
1.2564
-1059.75
0.868779
-1005.64
-0.216326
-997.8
-1.2655
-999.269
-1.99592
-999.154
-2.6409
-999.848
-3.00712
-999.921
-3.19333
-1000.4
-3.11414
-1000.57
-2.78329
-1000.94
-2.22731
-1001.16
-1.42684
-1001.46
-0.497339
-1001.76
0.479542
-1001.66
1.45217
-1000.51
4.20705
-1006.9
9.06331
-1056.6
3.8017
-1057.93
-540.739
4.89002
-772.844
2.49923
-1057.36
-0.0173492
-1003.12
-2.85356
-994.963
-5.72253
-996.4
-8.39989
-996.476
-11.0388
-997.209
-13.4959
-997.464
-15.8286
-998.07
-17.9719
-998.431
-19.9144
-998.996
-21.6701
-999.407
-23.1701
-999.959
-24.5058
-1000.43
-25.5641
-1000.6
-26.2355
-999.838
-26.7236
-1006.42
-28.4967
-1054.82
-26.8828
-1059.54
-567.621
8.13852
-780.983
3.78933
-1053.01
0.110841
-999.443
-3.60103
-991.251
-7.37713
-992.624
-11.0962
-992.757
-14.8438
-993.462
-18.5461
-993.761
-22.236
-994.38
-25.8774
-994.789
-29.4691
-995.405
-33.0082
-995.868
-36.4513
-996.516
-39.8438
-997.035
-42.9436
-997.503
-45.5992
-997.183
-50.6279
-1001.39
-62.9327
-1042.52
-56.1423
-1066.34
-623.764
12.2233
-793.206
6.73096
-1047.52
2.76133
-995.474
-0.858701
-987.631
-4.59085
-988.892
-8.33751
-989.011
-12.1779
-989.621
-16.0632
-989.876
-20.0357
-990.408
-24.0669
-990.758
-28.1819
-991.29
-32.3664
-991.684
-36.6175
-992.265
-40.9585
-992.694
-45.1735
-993.288
-49.076
-993.28
-55.8928
-994.57
-75.3979
-1023.01
-72.1853
-1069.55
-695.949
16.4657
-809.672
10.4222
-1041.48
6.56516
-991.617
3.6142
-984.681
0.51246
-985.79
-2.61157
-985.887
-5.84517
-986.388
-9.13399
-986.588
-12.5344
-987.008
-16.0116
-987.281
-19.6079
-987.694
-23.3011
-987.991
-27.1151
-988.451
-31.0615
-988.748
-35.0571
-989.293
-38.9144
-989.423
-44.0574
-989.427
-62.2714
-1004.8
-69.8834
-1061.94
-765.832
19.558
-829.23
12.9947
-1034.91
9.41157
-988.034
7.17063
-982.44
4.7769
-983.397
2.37075
-983.481
-0.118627
-983.899
-2.63377
-984.072
-5.22831
-984.413
-7.86378
-984.646
-10.5806
-984.977
-13.3523
-985.219
-16.2099
-985.594
-19.1463
-985.812
-22.1696
-986.27
-25.1821
-986.411
-28.1552
-986.454
-39.4597
-993.494
-54.5845
-1046.81
-820.417
20.8896
-850.12
13.7667
-1027.79
10.599
-984.866
8.85639
-980.698
6.97675
-981.517
5.09044
-981.595
3.14998
-981.958
1.20659
-982.129
-0.781688
-982.425
-2.77967
-982.648
-4.81747
-982.939
-6.86849
-983.168
-8.95901
-983.503
-11.068
-983.703
-13.2186
-984.119
-15.3765
-984.253
-17.3304
-984.5
-22.7101
-988.114
-37.4417
-1032.08
-857.858
20.9197
-871.04
13.3396
-1020.21
10.6491
-982.176
9.2021
-979.251
7.63249
-979.948
6.06226
-980.025
4.45129
-980.348
2.84555
-980.524
1.21042
-980.79
-0.423905
-981.014
-2.08021
-981.283
-3.73399
-981.515
-5.40702
-981.83
-7.07493
-982.035
-8.75325
-982.441
-10.4207
-982.586
-11.9981
-982.923
-14.9492
-985.163
-26.0729
-1020.96
-883.931
20.4871
-891.527
12.5161
-1012.24
10.2521
-979.912
8.97383
-977.973
7.583
-978.557
6.19826
-978.64
4.77326
-978.923
3.35428
-979.105
1.9089
-979.345
0.462647
-979.568
-1.00255
-979.818
-2.4645
-980.053
-3.94575
-980.349
-5.41638
-980.565
-6.89749
-980.96
-8.37495
-981.108
-9.76202
-981.536
-12.0449
-982.88
-21.0155
-1011.99
-904.947
20.1636
-911.691
11.7331
-1003.81
9.84164
-978.021
8.69249
-976.824
7.43046
-977.295
6.18057
-977.391
4.88316
-977.626
3.5854
-977.807
2.25933
-978.019
0.922708
-978.231
-0.436427
-978.459
-1.80112
-978.688
-3.1944
-978.956
-4.57841
-979.181
-5.99505
-979.544
-7.40676
-979.697
-8.74792
-980.195
-10.7522
-980.876
-19.3411
-1003.4
-924.288
20.1839
-931.875
11.1435
-994.771
9.6263
-976.504
8.64165
-975.839
7.51854
-976.172
6.40492
-976.277
5.23354
-976.454
4.04511
-976.619
2.82355
-976.798
1.57816
-976.986
0.3052
-977.186
-0.98566
-977.397
-2.31134
-977.631
-3.63679
-977.855
-5.02157
-978.159
-6.38424
-978.334
-7.768
-978.811
-9.60597
-979.038
-18.4568
-994.546
-942.745
20.8305
-952.705
11.0808
-985.021
9.97512
-975.398
9.26267
-975.127
8.36843
-975.278
7.44306
-975.352
6.4345
-975.446
5.36252
-975.547
4.22265
-975.658
3.01758
-975.781
1.74924
-975.918
0.423483
-976.072
-0.96202
-976.245
-2.38089
-976.437
-3.87139
-976.668
-5.32621
-976.879
-6.87766
-977.26
-8.53216
-977.384
-17.5671
-985.511
-960.312
22.2948
12.2733
11.8749
11.7482
11.4701
11.1183
10.6725
10.1253
9.46744
8.68632
7.76815
6.69632
5.4512
4.01455
2.34615
0.466704
-1.79298
-4.17678
-14.6882
-1027.85
416.006
-1443.85
415.994
415.989
415.982
529.705
-113.722
529.702
529.7
529.698
-36.732
566.397
-36.83
-36.8647
-5066.1
5029.23
-5066.1
-5066.09
-5066.09
-13607.9
8541.8
-13607.9
-13607.9
-22305.1
8697.25
-21599
-20705.7
-19816.5
-18923.9
-18030.3
-17136.4
-16241.4
-15345.2
-19276.3
4819.62
-18380.2
-17474.6
-16555.9
-15620
-14656.7
-13655.2
-12583.1
-11393.2
-9988.79
-9431.28
956.385
-8581.15
-8581.15
-9527.59
946.433
-9578.26
50.6768
-9578.26
-9343.43
-234.828
-9343.43
-8641.47
-701.957
-7456.6
-1184.88
-7456.6
-5800.58
-1656.02
-5800.57
-3788.48
-2012.1
-1819.13
-1969.34
-1819.13
-129.701
-1689.42
745.097
-874.79
745.103
716.266
28.8445
716.273
716.273
684.674
-684.663
1306.78
-622.102
1548.63
-241.836
1288.9
259.736
546.687
742.218
-316.442
863.136
-829.234
512.8
-1173.64
344.412
-1608.6
434.968
-2225.62
617.022
-3120.9
895.281
-3700.17
579.273
-2992.27
-707.904
-901.913
-2090.35
2647.37
-3549.28
5747.97
-3100.6
5241.3
506.671
1268.63
3972.67
1984.91
480.632
-1165.28
1048.4
-1189.86
1378.55
-571.976
1397.49
240.803
999.792
1139.92
57.086
1805.85
-1111.04
1680.93
-1944.96
1178.34
-2452.36
942.369
-2990.2
1154.87
-3681.07
1586.16
-4033.02
931.221
-3365.38
-1375.54
-1485.28
-3970.45
1705.01
-6739.57
4998.01
-6393.6
6013.49
-508.808
3223.85
6762.31
5237.61
234.436
-1399.71
599.091
-1554.51
878.032
-850.909
965.918
152.929
802.989
1302.86
246.427
2362.41
-838.56
2765.92
-1867.57
2207.36
-2383.22
1458.02
-2860.22
1631.87
-3701.26
2427.2
-4420
1649.96
-3995.96
-1799.59
-2209.98
-5756.43
821.269
-9770.82
3801.58
-9373.91
5142.09
-1849.31
3804.41
8099.99
8167.23
13.3759
-1413.08
222.851
-1763.98
565.915
-1193.96
660.678
58.1909
526.417
1437.13
201.914
2686.92
-585.194
3553.03
-1593.63
3215.79
-2237.93
2102.33
-2833.29
2227.23
-3933.06
3526.97
-4950.92
2667.82
-4584.96
-2165.55
-2735.73
-7605.65
53.5517
-12560.1
2826.51
-12146.9
4281.04
-3303.84
3770.66
8610.37
10248.5
-109.108
-1303.96
-20.5268
-1852.55
358.349
-1572.83
411.609
4.96499
263.322
1585.42
-22.4947
2972.74
-551.12
4081.66
-1391.91
4056.59
-2175.39
2885.81
-2992.33
3044.17
-4310.03
4844.67
-5358.47
3716.26
-4753.4
-2770.62
-2798.4
-9560.65
-467.716
-14890.8
1902.07
-14516.7
3357.63
-4759.39
3398.15
8569.85
11677.3
-224.471
-1079.48
-257.875
-1819.14
105.849
-1936.55
35.1476
75.7025
-100.796
1721.37
-355.016
3226.96
-686.672
4413.31
-1311.7
4681.61
-2160.05
3734.16
-3212.25
4096.37
-4632.3
6264.73
-5268.46
4352.42
-4099.68
-3939.39
-2268.45
-11391.9
-806.906
-16352.3
877.962
-16201.5
2290.23
-6171.66
2759.43
8100.65
12424.6
-372.046
-707.426
-519.076
-1672.1
-435.035
-2020.59
-371.566
12.2391
-464.805
1814.62
-639.119
3401.28
-839.88
4614.08
-1294.2
5135.93
-2149.54
4589.5
-3380.51
5327.34
-4695.27
7579.49
-4433.69
4090.84
-2652.26
-5720.82
-1511.86
-12532.3
-1261.34
-16602.9
-237.519
-17225.3
1197.54
-7606.73
1962.34
7335.86
12730.9
-562.544
-144.863
-819.701
-1414.94
-834.875
-2005.41
-732.31
-90.3156
-729.785
1812.1
-813.987
3485.49
-935.969
4736.06
-1286.39
5486.36
-2128.9
5432.01
-3442.94
6641.38
-4424.1
8560.65
-3112.34
2779.08
-1186.39
-7646.77
-1335.33
-12383.3
-2167.29
-15770.9
-1415.39
-17977.2
172.48
-9194.59
1120.69
6387.65
12666.8
-811.076
666.215
-1173.03
-1052.99
-1273.58
-1904.85
-1115.07
-248.828
-972.916
1669.95
-948.165
3460.74
-1002.17
4790.07
-1291.55
5775.74
-2118.09
6258.54
-3407.97
7931.27
-3882.3
9034.98
-1867.67
764.463
-534.285
-8980.16
-2147.23
-10770.4
-3547.05
-14371.1
-2619.36
-18904.9
-798.615
-11015.3
257.325
5331.71
12222.1
-1028.94
1695.16
-1568.99
-512.93
-1777.05
-1696.78
-1598.85
-427.029
-1313.9
1385.01
-1149.27
3296.11
-1116.76
4757.56
-1365.58
6024.57
-2180.39
7073.35
-3332.91
9083.79
-3094.75
8796.82
-902.978
-1427.3
-736.735
-9146.4
-3477.73
-8029.39
-4929.19
-12919.6
-3748.02
-20086.1
-1749.13
-13014.2
-556.408
4139
11430.9
-1177.44
2872.6
-1968.11
277.744
-2322.34
-1342.54
-2200.49
-548.886
-1825.96
1010.48
-1518.13
2988.28
-1387.45
4626.88
-1618.57
6255.68
-2425.45
7880.23
-3293.43
9951.77
-2087.37
7590.76
6.68483
-3521.36
-1217.76
-7921.96
-4426.58
-4820.57
-5610.05
-11736.1
-4595.19
-21101
-2597.33
-15012.1
-1152.05
2693.71
10329.5
-1216.4
4089
-2275.33
1336.68
-2845.45
-772.419
-2876.22
-518.114
-2526.07
660.342
-2143.16
2605.38
-1955.02
4438.74
-2205.6
6506.27
-2958.46
8633.1
-3323.94
10317.3
-1144.79
5411.6
826.332
-5492.48
-1379.74
-5715.88
-4173.27
-2027.04
-5005.26
-10904.2
-4953.63
-21152.6
-3330.56
-16635.2
-1795.24
1158.4
9480.71
-1143.06
5232.06
-2407.44
2601.06
-3242.22
62.3628
-3516.44
-243.895
-3337.93
481.824
-3036.08
2303.54
-2902.06
4304.71
-3190.31
6794.52
-3724.36
9167.15
-3306.37
9899.26
-430.158
2535.39
1126.86
-7049.5
-1151.73
-3437.29
-2589.17
-589.603
-3286.27
-10207.1
-4909.97
-19528.9
-3894
-17651.1
-1833.9
-901.702
8603.19
-976.534
6208.6
-2304.26
3928.79
-3381.32
1139.43
-3962.44
337.229
-4066.45
585.841
-4013.51
2250.59
-4058.76
4349.97
-4347.46
7083.22
-4398.49
9218.18
-2819.36
8320.14
252.954
-536.921
531.009
-7327.55
-1353.95
-1552.32
-1125.02
-818.537
-1952.42
-9379.65
-5041.99
-16439.3
-5687.04
-17006.1
-3278.15
-3310.59
10144.7
-772.412
6981
-2029.4
5185.78
-3229.3
2339.33
-4089.62
1197.55
-4506.36
1002.58
-4769.86
2514.09
-5041.16
4621.27
-5238.97
7281.03
-4505.43
8484.64
-1304.77
5119.47
1146.26
-2987.94
-808.31
-5372.98
-2262.91
-97.7197
-1367.31
-1714.14
-2249.83
-8497.13
-5620.14
-13069
-8302.7
-14323.5
-7802.08
-3811.21
11039.8
-576.08
7557.09
-1698.19
6307.88
-2894.7
3535.85
-3933.16
2236.01
-4590.97
1660.39
-5110.78
3033.9
-5537.6
5048.09
-5501.88
7245.31
-3936.13
6918.89
-489.678
1673.02
434.01
-3911.63
-2199.5
-2739.47
-3010.45
713.226
-2446.3
-2278.28
-3304.67
-7638.77
-5793.73
-10580
-9110.1
-11007.1
-9889.98
-3031.33
9691.65
-407.955
7965.04
-1381.38
7281.3
-2482.48
4636.95
-3592.73
3346.26
-4384.55
2452.2
-5033.59
3682.94
-5461.54
5476.05
-4980.71
6764.48
-2462.29
4400.47
-157.178
-632.096
-1405.75
-2663.06
-3646.03
-499.183
-3957.21
1024.41
-3899.66
-2335.83
-4292.84
-7245.59
-4958.05
-9914.75
-7021.49
-8943.7
-7880.3
-2172.52
6840.58
-266.481
8231.53
-1114.97
8129.8
-2068.56
5590.55
-3165.02
4442.72
-3999.82
3287
-4657.78
4340.9
-4942.45
5760.72
-3969.96
5791.99
-1224.24
1654.76
-515.924
-1340.41
-2859.93
-319.055
-4615.11
1256
-5196.78
1606.08
-5615.09
-1917.51
-5624.16
-7236.52
-4626.89
-10912
-4295.58
-9275.02
-4324.54
-2143.56
3082.43
-155.863
8387.38
-911.537
8885.47
-1699.92
6378.92
-2722.82
5465.62
-3537.27
4101.45
-4115.33
4918.96
-4167.86
5813.26
-2907.76
4531.88
-1290.62
37.6181
-1852.48
-778.549
-3820.43
1648.9
-5447.66
2883.23
-6592.35
2750.77
-7353.9
-1155.97
-7257.66
-7332.77
-5782.93
-12386.7
-3350.66
-11707.3
-1636.15
-3858.07
1332.56
-12.6009
-759.926
-1397.98
-2312.18
-3069.61
-3533.15
-3406.6
-2327.38
-1729.16
-2758.76
-4392.27
-6158.3
-7701.36
-8410.4
-8106.86
-7072.45
-4948.21
-1227.43
-672.201
1647.2
-1085.58
1388.38
-1507.72
1397.14
-1842.36
1309.64
-2135.94
1268.57
-2376.62
1215.68
-2572.89
1171.28
-2725.01
1127.12
-2836.07
1086.06
-2907.86
1046.79
-2941.56
1008.69
-2935.91
969.35
-2886.92
926.009
-2788.93
877.013
-2636.29
822.36
-2422.71
761.422
-2129.28
681.574
-1686.01
531.727
-964.652
253.64
10.3479
-172.588
1819.79
-393.433
1609.23
-627.505
1631.21
-818.836
1500.97
-1000.64
1450.38
-1149.5
1364.54
-1275.42
1297.2
-1373.85
1225.54
-1446.42
1158.63
-1489.06
1089.43
-1495.38
1015.02
-1457.89
931.858
-1375.04
843.16
-1254.96
756.935
-1111.01
678.405
-950.223
600.636
-766.466
497.817
-548.648
313.909
-246.911
-48.0977
-236.563
-138.565
1958.35
-316.016
1786.68
-453.636
1768.83
-563.08
1610.41
-663.567
1550.87
-742.26
1443.23
-812.72
1367.66
-871.474
1284.3
-919.739
1206.89
-945.322
1115.01
-925.019
994.714
-831.82
838.658
-663.786
675.126
-454.013
547.162
-229.045
453.437
16.9896
354.6
277.325
237.481
468.517
122.717
392.172
28.247
155.609
-85.1997
2043.55
-189.679
1891.16
-280.759
1859.91
-371.377
1701.03
-465.167
1644.66
-553.942
1532
-648.785
1462.5
-744.03
1379.54
-843.957
1306.82
-940.507
1211.56
-1018.96
1073.16
-1051.43
871.126
-1019.28
642.981
-931.176
459.058
-798.849
321.109
-622.519
178.27
-415.826
30.7884
-186.547
-106.563
-36.8397
-121.461
118.769
-23.6574
2067.21
-115.663
1983.16
-176.075
1920.32
-233.406
1758.36
-291.14
1702.39
-341.78
1582.64
-392.2
1512.92
-436.103
1423.44
-478.719
1349.43
-524.185
1257.03
-585.574
1134.55
-671.673
957.224
-769.834
741.142
-845.328
534.552
-879.61
355.39
-888.121
186.781
-884.882
27.5483
-802.208
-189.236
-559.369
-364.301
-440.6
114.039
1953.17
50.7849
2046.42
55.0271
1916.08
73.321
1740.07
101.179
1674.53
135.425
1548.4
180.689
1467.66
236.576
1367.56
303.98
1282.03
373.057
1187.95
423.859
1083.75
425.34
955.743
363.879
802.603
264.519
633.912
160.845
459.064
74.2911
273.335
44.371
57.4682
-10.2036
-134.662
-78.2791
-296.225
-518.879
194.376
1758.8
177.716
2063.08
213.237
1880.56
268.849
1684.46
336.856
1606.52
404.61
1480.64
481.794
1390.48
564.509
1284.84
656.434
1190.11
751.686
1092.7
840.933
994.504
905.647
891.029
927.997
780.253
901.408
660.5
828.786
531.686
710.707
391.414
528.452
239.723
328.373
65.4171
166.748
-134.601
-352.131
182.273
1576.52
188.498
2056.85
212.873
1856.18
256.082
1641.25
307.306
1555.3
355.116
1432.83
404.195
1341.4
453.25
1235.79
502.854
1140.5
551.358
1044.2
595.364
950.499
628.936
857.456
644.398
764.792
634.648
670.25
594.747
571.588
523.01
463.15
420.397
342.337
289.442
196.373
137.221
17.6204
-214.91
143.639
1432.88
152.823
2047.67
155.053
1853.95
173.856
1622.44
198.398
1530.76
219.508
1411.72
238.047
1322.86
255.279
1218.55
269.746
1126.03
282.301
1031.64
291.443
941.356
296.492
852.408
295.311
765.972
285.446
680.115
263.115
593.919
226.338
499.927
173.589
395.085
109.326
260.636
40.1031
86.8432
-174.807
116.448
1316.44
128.073
2036.04
114.342
1867.68
116.164
1620.62
127.22
1519.7
135.431
1403.51
141.348
1316.94
145.594
1214.31
147.468
1124.16
147.891
1031.22
146.169
943.078
142.763
855.814
137.34
771.395
129.651
687.804
117.914
605.656
100.447
517.394
73.9287
421.604
39.796
294.769
12.5385
114.101
-162.268
96.1526
1220.28
117.828
2014.37
103.83
1881.68
100.743
1623.71
113.623
1506.82
125.497
1391.64
137.256
1305.18
146.431
1205.13
154.446
1116.15
160.548
1025.12
164.592
939.034
165.977
854.429
164.332
773.041
159.173
692.963
149.805
615.024
134.436
532.763
110.249
445.791
73.7337
331.284
27.025
160.809
-135.244
67.24
1153.04
103.078
1978.53
104.205
1880.56
104.846
1623.07
126.116
1485.55
150.429
1367.33
177.758
1277.85
202.11
1180.78
225.525
1092.73
245.49
1005.15
261.565
922.959
271.729
844.265
274.763
770.006
269.24
698.486
254.51
629.755
228.939
558.333
191.192
483.538
137.097
385.38
55.726
242.18
-79.5176
30.386
1122.66
83.4746
1925.44
109.158
1854.87
119.039
1613.19
147.809
1456.78
183.598
1331.54
225.32
1236.13
264.347
1141.76
300.973
1056.11
331.602
974.522
354.945
899.616
368.645
830.565
371.265
767.387
361.488
708.263
338.795
652.448
302.223
594.904
251.185
534.577
183.672
452.892
85.7653
340.087
6.24774
-0.981542
1123.64
73.0831
1851.38
127.459
1800.5
153.895
1586.75
190.027
1420.65
232.701
1288.86
281.253
1187.58
326.716
1096.29
367.056
1015.77
398.515
943.064
419.431
878.701
428.246
821.75
424.3
771.333
407.247
725.316
377.136
682.559
333.625
638.416
276.328
591.874
204.217
525.003
107.093
437.211
113.34
-15.0107
1138.65
74.2397
1762.13
154.309
1720.43
204.36
1536.7
251.347
1373.66
298.174
1242.04
345.876
1139.88
388.162
1054.01
422.307
981.621
445.488
919.883
456.608
867.581
455.331
823.027
441.99
784.674
417.035
750.272
380.941
718.652
333.543
685.815
274.569
650.848
202.354
597.218
110.966
528.599
224.307
-5.48686
1144.14
74.785
1681.85
169.143
1626.07
242.864
1462.98
303.06
1313.47
353.649
1191.45
397.095
1096.43
431.398
1019.7
455.113
957.906
467.159
907.838
467.555
867.185
456.908
833.674
436.135
805.447
405.954
780.453
366.901
757.705
318.713
734.003
261.197
708.364
191.788
666.628
106.342
614.044
330.649
22.3283
1121.81
68.5502
1635.63
158.917
1535.71
243.674
1378.22
311.095
1246.05
363.046
1139.5
401.855
1057.62
428.467
993.092
443.081
943.292
446.307
904.612
439.314
874.178
423.523
849.466
399.862
829.108
368.916
811.399
331.121
795.5
286.13
778.995
233.838
760.656
171.074
729.391
94.1505
690.968
424.799
49.6579
1072.15
59.0813
1626.21
137.538
1457.25
234.168
1281.59
305.023
1175.19
355.68
1088.84
388.462
1024.84
408.238
973.316
416.065
935.465
414.394
906.284
404.494
884.078
386.866
867.094
363.165
852.809
333.844
840.72
298.94
830.404
258.027
819.908
210.925
807.758
154.342
785.975
84.3865
760.923
509.186
87.4799
984.671
68.882
1644.81
58.3817
1467.75
107.227
1232.75
168.84
1113.58
224.642
1033.04
265.163
984.319
291.381
947.098
303.853
922.993
305.812
904.325
299.643
890.247
290.484
876.253
275.25
868.043
254.157
861.813
228.227
856.333
197.482
850.653
162.32
842.92
118.991
829.304
63.5235
816.39
572.709
134.54
265.46
328.746
371.672
413.118
444.634
465.639
476.906
481.136
479.897
474.031
461.778
433.577
400.436
362.846
319.952
270.223
210.332
133.397
)
;

boundaryField
{
    outletWallLeft
    {
        type            calculated;
        value           nonuniform List<scalar> 
40
(
126.698
118.247
103.626
84.2147
61.5151
36.6977
11.0065
-14.8492
-41.5384
-68.1037
-97.3034
-122.808
-159.4
-172.873
-243.275
-184.765
-430.114
30.7211
-1168.48
1258.94
-6110.72
-5697.04
-5894.9
-6030.5
-7188.51
-8098.63
-8731.83
-8923.04
-8286.53
-6175.57
-1341.72
6887.96
10560.2
11913.1
11440
12699
9758.78
15749
1869.85
31473.5
)
;
    }
    fineWallsLeft
    {
        type            calculated;
        value           uniform 0;
    }
    fineFrontAndBackLeft
    {
        type            calculated;
        value           nonuniform List<scalar> 
880
(
-3.11484e-15
4.40366e-15
-6.41795e-14
5.23678e-14
-1.10492e-13
-1.24172e-12
-4.66512e-13
-1.5039e-12
-1.80507e-12
-3.22923e-13
-9.41281e-13
-2.81972e-13
-1.00264e-12
-1.38756e-12
-3.88734e-13
-1.43989e-12
-4.07388e-13
-1.27711e-12
-1.35367e-12
-4.03199e-13
-5.89316e-14
5.79129e-13
-4.34505e-13
-4.69209e-13
-4.71681e-13
-6.43325e-13
-6.21639e-13
-5.98139e-13
-6.08775e-13
-6.40004e-13
-6.71579e-13
-4.76779e-12
-6.24795e-13
-6.0788e-13
-5.72267e-13
-6.05377e-13
-7.293e-13
-9.15263e-13
-1.20262e-12
-1.61409e-12
-2.59129e-11
-4.80427e-12
-4.87284e-12
-2.90244e-11
-4.29596e-12
-4.0389e-12
-3.86187e-12
-1.75296e-11
-1.86146e-12
-2.3204e-12
9.9008e-12
5.03042e-12
4.56942e-12
4.67408e-12
2.85528e-11
5.08364e-12
5.55702e-12
5.692e-12
3.23476e-11
5.00224e-12
2.50406e-16
7.43907e-15
-4.40512e-14
-2.94089e-13
-6.90868e-13
-8.22361e-13
-1.13312e-12
-7.91037e-12
-3.02126e-11
-2.96415e-11
-1.93699e-11
-2.64858e-11
-5.18218e-11
-6.35798e-11
-4.89354e-11
-4.24379e-11
-4.77429e-11
-3.52301e-11
6.63938e-12
1.60257e-17
4.94813e-15
-1.17822e-14
-1.47085e-13
-3.84026e-13
-3.19649e-13
-9.67755e-13
-1.162e-11
-3.88499e-11
-3.84381e-11
-2.80873e-11
-3.30735e-11
-5.06261e-11
-4.28543e-11
-1.82633e-11
-1.62583e-11
-3.79579e-11
-4.58898e-11
-1.32455e-11
-1.21204e-17
2.64116e-15
-7.57261e-16
-6.68336e-14
-1.66253e-13
1.18966e-13
-6.45384e-13
-1.37649e-11
-4.55611e-11
-5.1343e-11
-4.28222e-11
-4.37733e-11
-4.63936e-11
-1.84134e-11
1.76586e-12
2.81275e-12
-2.13324e-11
-4.70419e-11
-3.31138e-11
-4.86404e-18
1.20417e-15
1.37335e-15
-2.89821e-14
-4.3715e-14
3.88742e-13
-1.28201e-13
-1.31039e-11
-4.75072e-11
-6.37414e-11
-5.93622e-11
-5.5142e-11
-4.05722e-11
-5.33443e-12
2.03382e-12
3.0768e-12
-7.9051e-12
-3.62302e-11
-4.50385e-11
-1.20342e-18
4.68559e-16
9.33957e-16
-1.25066e-14
4.88237e-15
4.35314e-13
3.73446e-13
-9.41031e-12
-4.12704e-11
-6.7956e-11
-7.08984e-11
-6.05363e-11
-3.01882e-11
-1.60487e-12
4.74539e-14
2.28312e-13
-1.40446e-12
-1.76664e-11
-3.86105e-11
-4.52726e-18
1.4611e-16
4.5512e-16
-5.3671e-15
9.90844e-15
3.24196e-13
6.09907e-13
-4.834e-12
-2.92285e-11
-6.21728e-11
-7.32117e-11
-5.67226e-11
-1.54623e-11
-1.84638e-12
6.52413e-13
2.88589e-13
-1.62257e-14