/*--------------------------------*- C++ -*----------------------------------*\
| =========                 |                                                 |
| \\      /  F ield         | OpenFOAM: The Open Source CFD Toolbox           |
|  \\    /   O peration     | Version:  4.1                                   |
|   \\  /    A nd           | Web:      www.OpenFOAM.org                      |
|    \\/     M anipulation  |                                                 |
\*---------------------------------------------------------------------------*/
FoamFile
{
    version     2.0;
    format      ascii;
    class       volVectorField;
    location    "4";
    object      U;
}
// * * * * * * * * * * * * * * * * * * * * * * * * * * * * * * * * * * * * * //

dimensions      [0 1 -1 0 0 0 0];

internalField   nonuniform List<vector> 
1680
(
(-8.57197e-19 2.94952 0.015181)
(3.18241e-18 2.17112 0.0263457)
(-1.76621e-17 2.14552 0.0753583)
(3.78448e-17 1.7976 0.0998319)
(-1.79101e-16 2.22936 0.022268)
(-3.41719e-16 2.26209 -0.0406298)
(-3.37136e-16 1.8452 -0.020152)
(-4.13869e-16 2.20461 -0.0781527)
(-4.96751e-16 2.3654 -0.139156)
(-2.04259e-16 1.81169 -0.0846339)
(-2.59039e-16 2.58395 -0.200413)
(-2.03773e-16 1.96305 -0.11149)
(-2.75924e-16 2.23995 -0.190986)
(-3.81855e-16 2.47401 -0.309057)
(-2.80928e-16 2.00539 -0.170279)
(-3.96256e-16 2.5966 -0.423441)
(-2.94409e-16 2.37264 -0.200668)
(-3.51457e-16 1.64936 -0.768993)
(-3.72527e-16 4.87146 0.296571)
(-2.91382e-16 -0.0691942 -3.94202)
(-2.41771e-16 3.14732 3.73387)
(2.32232e-16 1.33459 0.420228)
(-1.78258e-15 3.79317 7.07449)
(-1.92496e-15 4.42627 8.13914)
(-1.9351e-15 4.48586 9.11415)
(-2.63928e-15 4.64523 9.88015)
(-2.55032e-15 4.74234 10.5265)
(-2.4539e-15 4.81941 11.0074)
(-2.49754e-15 4.93249 11.4315)
(-2.62566e-15 4.85351 11.708)
(-2.7552e-15 5.21491 12.1854)
(-1.91189e-15 4.72891 10.53)
(-2.56326e-15 6.59073 13.5682)
(-2.49387e-15 6.71753 13.7795)
(-2.34776e-15 6.75209 13.9141)
(-2.4836e-15 6.75849 14.112)
(-2.992e-15 6.83559 14.4143)
(-3.75493e-15 6.75436 14.8592)
(-4.93383e-15 6.97493 15.6568)
(-6.62189e-15 6.71968 15.2409)
(-9.02102e-15 8.79687 17.3076)
(-7.7177e-15 6.14687 12.7037)
(-7.82786e-15 5.2299 12.2262)
(-1.00965e-14 5.02598 15.1972)
(-6.90114e-15 3.45287 10.2691)
(-6.48819e-15 3.04801 9.72513)
(-6.20381e-15 2.40536 9.31902)
(-6.10254e-15 1.51468 8.81265)
(-2.9903e-15 0.742896 4.23559)
(-3.72755e-15 0.790432 4.12334)
(3.44675e-15 -0.610884 -0.762384)
(8.08099e-15 -0.489643 -2.62402)
(7.34043e-15 -0.285991 -2.6911)
(7.50857e-15 -0.0882906 -2.90936)
(9.70264e-15 -0.522885 -3.2991)
(8.16649e-15 -0.653253 -2.12233)
(8.92693e-15 -0.472239 -2.30685)
(9.14378e-15 -0.330368 -2.34268)
(1.12611e-14 -0.411882 -3.09821)
(8.03572e-15 -0.457831 -2.67288)
(5.56459e-20 -2.78792 -0.588196)
(1.65313e-18 -3.32926 0.681793)
(-9.78915e-18 -2.4336 1.45237)
(-6.53532e-17 -2.2688 2.49014)
(-1.53526e-16 -1.73937 3.99383)
(-1.82747e-16 -1.86058 4.8304)
(-2.51805e-16 -1.86546 5.15401)
(-1.75786e-15 -1.02053 4.31336)
(-6.71392e-15 0.179789 3.57917)
(-6.587e-15 -0.261931 4.78777)
(-4.30442e-15 -1.33082 6.48971)
(-5.88574e-15 -1.85374 9.43194)
(-1.1516e-14 -1.68136 12.5919)
(-1.41288e-14 0.103818 13.9483)
(-1.08745e-14 2.64633 12.1413)
(-9.43065e-15 4.60527 11.0548)
(-1.06095e-14 4.87319 12.0265)
(-7.82891e-15 3.13936 9.45235)
(1.47542e-15 0.896778 2.02561)
(3.56127e-21 -2.73411 -0.308015)
(1.09958e-18 -3.53338 0.564925)
(-2.61827e-18 -2.58786 1.3214)
(-3.26856e-17 -2.51041 2.07627)
(-8.53392e-17 -1.95347 3.44393)
(-7.10332e-17 -1.964 4.1482)
(-2.15057e-16 -1.82484 4.34195)
(-2.58221e-15 -0.972023 3.955)
(-8.63332e-15 0.0723331 4.87897)
(-8.5418e-15 -0.49204 5.91059)
(-6.24162e-15 -1.76604 7.09808)
(-7.34967e-15 -2.4591 9.87933)
(-1.12502e-14 -2.03963 12.5601)
(-9.52317e-15 0.351249 10.9073)
(-4.05851e-15 2.99779 6.67026)
(-3.61295e-15 4.3772 6.06399)
(-8.4351e-15 4.59955 10.844)
(-1.01977e-14 3.93866 12.9222)
(-2.94345e-15 2.5929 6.61581)
(-2.69343e-21 -2.71506 -0.0110554)
(5.86925e-19 -3.6939 0.45525)
(-1.6828e-19 -2.71801 1.26833)
(-1.48519e-17 -2.71047 1.76935)
(-3.69452e-17 -2.14106 3.00413)
(2.64369e-17 -2.0464 3.58615)
(-1.43419e-16 -1.82869 3.71654)
(-3.05887e-15 -1.12937 3.80683)
(-1.01247e-14 -0.171987 5.88306)
(-1.14096e-14 -0.680543 7.16172)
(-9.51604e-15 -2.13991 8.06115)
(-9.7274e-15 -2.94443 10.4427)
(-1.03097e-14 -1.95051 11.6339)
(-4.09186e-15 1.20204 6.54277)
(3.92412e-16 3.56908 2.12156)
(6.25056e-16 3.77403 1.61663)
(-4.74054e-15 3.47461 7.44652)
(-1.04538e-14 4.08917 14.2163)
(-7.35861e-15 4.49226 11.2078)
(-1.0809e-21 -2.72852 0.333632)
(2.67593e-19 -3.82084 0.361997)
(3.0519e-19 -2.83397 1.27472)
(-6.44047e-18 -2.87333 1.54933)
(-9.71444e-18 -2.30493 2.67412)
(8.63872e-17 -2.11266 3.14776)
(-2.8489e-17 -1.86804 3.21863)
(-2.91199e-15 -1.43047 3.54614)
(-1.05571e-14 -0.584987 6.48412)
(-1.41648e-14 -0.90638 8.74443)
(-1.31916e-14 -2.43561 9.68284)
(-1.22538e-14 -3.17795 11.2411)
(-9.01605e-15 -1.3427 10.128)
(-1.18543e-15 2.23946 3.30695)
(4.51959e-16 4.00558 0.907153)
(6.83732e-16 3.38461 0.757761)
(-1.75669e-15 2.06707 3.57062)
(-8.05116e-15 3.28502 11.9663)
(-1.00086e-14 5.407 14.687)
(-2.67426e-22 -2.78109 0.854127)
(1.04124e-19 -3.90817 0.290655)
(2.07546e-19 -2.94117 1.32644)
(-2.77925e-18 -3.00408 1.39445)
(1.08497e-18 -2.44982 2.44464)
(9.67364e-17 -2.16166 2.82789)
(8.29881e-17 -1.90172 2.80531)
(-2.09118e-15 -1.79192 2.93337)
(-9.1712e-15 -1.20239 5.97324)
(-1.51013e-14 -1.31167 9.56475)
(-1.57552e-14 -2.66876 11.3341)
(-1.34525e-14 -3.03173 11.7435)
(-6.70848e-15 -0.315875 7.72327)
(-3.56638e-16 3.06191 1.34574)
(1.05453e-17 4.08593 0.585436)
(5.07361e-17 3.30612 0.933481)
(-3.12103e-16 1.15383 0.813548)
(-3.92588e-15 1.92324 5.85144)
(-8.5801e-15 5.25714 13.318)
(-1.00606e-21 -2.90382 1.55965)
(3.24688e-20 -3.93418 0.217815)
(1.01138e-19 -3.04433 1.40618)
(-1.19269e-18 -3.10847 1.28571)
(2.20188e-18 -2.58213 2.29966)
(7.20436e-17 -2.19137 2.60299)
(1.35535e-16 -1.88321 2.44459)
(-1.07422e-15 -2.07587 2.09594)
(-6.49522e-15 -1.91519 4.44475)
(-1.38162e-14 -1.94856 8.8919)
(-1.62693e-14 -2.88803 11.8173)
(-1.2605e-14 -2.45453 10.9815)
(-3.43608e-15 0.872241 4.26119)
(-4.10306e-16 3.64441 0.478728)
(1.44981e-16 4.07491 0.16576)
(6.41308e-17 3.31438 0.6602)
(-3.60571e-18 1.24379 0.309416)
(1.02361e-16 0.504204 -1.29277)
(-3.75304e-15 4.0414 6.02816)
(-3.85968e-21 -3.10526 2.26861)
(1.46275e-20 -3.8865 0.109505)
(1.32162e-19 -3.14856 1.49258)
(-8.52639e-19 -3.19103 1.20848)
(-1.99279e-18 -2.70475 2.21731)
(4.23196e-17 -2.19638 2.4354)
(1.49187e-16 -1.7929 2.09591)
(-3.05306e-16 -2.20221 1.26017)
(-3.63815e-15 -2.56762 2.58182)
(-1.09144e-14 -2.73388 6.95973)
(-1.49845e-14 -3.10373 10.7596)
(-1.06951e-14 -1.59152 8.99343)
(-1.81875e-15 1.75207 1.7749)
(-2.45044e-16 3.92534 0.0162161)
(2.43324e-16 4.04557 -0.142727)
(5.07936e-17 3.28047 0.42519)
(1.13124e-17 1.46362 0.303441)
(-6.53807e-17 0.781229 -0.550466)
(1.08726e-15 0.991087 -2.50605)
(-7.40386e-21 -3.37427 2.78693)
(2.78646e-20 -3.77652 -0.0402347)
(2.36942e-19 -3.2648 1.56666)
(-1.61249e-18 -3.25928 1.15161)
(-8.53227e-18 -2.82233 2.17057)
(3.29669e-17 -2.17547 2.30063)
(2.02779e-16 -1.6406 1.77647)
(1.75248e-16 -2.18309 0.606837)
(-1.47311e-15 -3.06361 1.14332)
(-7.44368e-15 -3.52855 4.65677)
(-1.25953e-14 -3.32863 8.705)
(-8.77881e-15 -0.651366 6.64029)
(-1.49708e-15 2.53869 0.638761)
(1.06997e-16 4.05316 -0.411253)
(1.77856e-16 3.98254 -0.306234)
(-2.53804e-19 3.22228 0.296864)
(1.81078e-18 1.51956 0.377916)
(3.0328e-17 1.01932 -0.184801)
(-3.69899e-16 1.46451 -1.81626)
(-8.39534e-21 -3.66931 3.04344)
(4.36322e-20 -3.6264 -0.201908)
(2.59548e-19 -3.39133 1.61622)
(-2.44164e-18 -3.31199 1.10585)
(-1.11095e-17 -2.92859 2.1315)
(4.06891e-17 -2.12139 2.2543)
(2.60946e-16 -1.43618 1.82811)
(4.25794e-16 -2.07655 0.6569)
(-2.67243e-16 -3.3831 0.67475)
(-4.354e-15 -4.19225 2.85203)
(-9.62516e-15 -3.54822 6.3443)
(-6.76301e-15 0.187474 4.27362)
(-8.03417e-16 3.1671 -0.367629)
(2.24585e-16 4.11869 -0.691457)
(8.53849e-17 3.89527 -0.407865)
(-7.29912e-18 3.14082 0.243133)
(-8.2981e-20 1.57877 0.540691)
(3.25887e-18 1.10307 0.0590108)
(3.34501e-17 1.17845 -0.645826)
(-5.88627e-21 -3.99732 3.07908)
(3.87063e-20 -3.46153 -0.336641)
(1.28261e-19 -3.54502 1.63821)
(-1.69513e-18 -3.36326 1.0662)
(-3.90152e-18 -3.05629 2.08643)
(1.8969e-17 -2.12918 2.43809)
(6.92105e-17 -1.3172 2.92526)
(2.127e-16 -1.96693 2.17949)
(6.7684e-17 -3.51325 1.45684)
(-2.21572e-15 -4.61187 2.049)
(-6.58242e-15 -3.69384 4.2503)
(-4.81588e-15 0.771085 2.21074)
(-9.4601e-17 3.55316 -1.16013)
(2.02075e-16 4.08122 -0.883838)
(2.17362e-17 3.78789 -0.470971)
(-3.33913e-18 3.02948 0.302973)
(7.35061e-18 1.59507 0.71669)
(8.16449e-18 1.24531 0.253764)
(-8.28077e-17 1.37214 -0.915801)
(-1.94801e-21 -4.27373 2.95851)
(1.57008e-20 -3.28864 -0.409596)
(-7.42478e-20 -3.68442 1.63261)
(4.26867e-19 -3.38737 1.03547)
(8.93235e-18 -3.19568 2.03609)
(-4.4611e-17 -2.28405 2.77369)
(-3.89264e-16 -1.36042 4.71845)
(-5.4192e-16 -1.7885 4.88055)
(-4.25539e-16 -3.36563 3.56635)
(-1.43764e-15 -4.69779 2.72821)
(-4.31058e-15 -3.66611 3.22027)
(-3.03762e-15 1.08445 0.695253)
(1.4053e-16 3.81606 -1.41681)
(1.45971e-16 3.98921 -1.01732)
(-2.55656e-18 3.65136 -0.467951)
(-1.41274e-18 2.89699 0.463418)
(6.2421e-18 1.6148 0.847277)
(9.62276e-18 1.3562 0.335339)
(-5.72339e-17 1.45575 -0.414181)
(1.03055e-21 -4.66031 2.7615)
(-7.09946e-21 -3.13443 -0.41883)
(-2.27855e-19 -3.89229 1.60793)
(2.06097e-18 -3.45017 1.01861)
(1.83916e-17 -3.42806 1.9824)
(-7.88655e-17 -2.6871 2.90624)
(-7.07182e-16 -1.75657 5.86048)
(-1.36595e-15 -1.78278 7.4307)
(-1.53854e-15 -3.12854 6.62138)
(-2.04045e-15 -4.50803 5.11426)
(-3.3215e-15 -3.29848 3.69125)
(-1.15307e-15 1.49358 -0.794665)
(7.91637e-17 3.94245 -1.42633)
(6.22367e-17 3.89639 -1.0337)
(-2.63398e-18 3.48894 -0.35164)
(-3.6395e-19 2.7618 0.650378)
(5.268e-18 1.64789 0.898669)
(1.03087e-17 1.46475 0.374534)
(-4.18763e-17 1.55322 -0.293325)
(2.17416e-21 -4.77405 2.48196)
(-1.81166e-20 -2.95561 -0.327339)
(-2.75368e-19 -3.96128 1.55909)
(2.28759e-18 -3.40467 1.01955)
(2.01991e-17 -3.52586 1.92339)
(-5.88859e-17 -3.01033 2.72661)
(-6.88759e-16 -2.20001 5.80816)
(-1.7011e-15 -1.89574 8.66499)
(-2.43552e-15 -2.9075 9.2547)
(-2.92156e-15 -4.07769 7.8612)
(-2.87109e-15 -2.46234 4.46565)
(1.70724e-17 2.06711 -1.88232)
(8.09563e-17 3.89734 -1.59765)
(2.75752e-18 3.77752 -0.951581)
(-1.18721e-18 3.314 -0.124042)
(-4.4194e-20 2.64488 0.778248)
(3.71091e-18 1.6966 0.876557)
(1.04631e-17 1.57285 0.380751)
(-2.57591e-17 1.62142 -0.274301)
(1.93232e-21 -5.5176 2.23823)
(-1.78924e-20 -2.86528 -0.216393)
(-2.34248e-19 -4.35249 1.51324)
(1.6257e-18 -3.59477 1.03279)
(1.61176e-17 -3.89326 1.87298)
(-2.34446e-17 -3.56987 2.41469)
(-4.75233e-16 -3.04642 4.95125)
(-1.46172e-15 -2.56382 8.26674)
(-2.43367e-15 -3.04901 10.0404)
(-2.87377e-15 -3.54704 8.90851)
(-2.07794e-15 -1.29275 4.00049)
(1.67028e-16 2.70624 -1.95458)
(8.27399e-17 3.78243 -1.71357)
(-4.66501e-18 3.59228 -0.778711)
(-1.2946e-18 3.12908 0.125143)
(-1.55028e-20 2.54691 0.811309)
(2.11707e-18 1.73884 0.815178)
(9.33852e-18 1.65185 0.371945)
(-1.56686e-17 1.6891 -0.124243)
(1.18053e-21 -4.80367 1.79058)
(-1.29704e-20 -2.59266 0.150453)
(-1.55653e-19 -3.98517 1.41459)
(8.56637e-19 -3.2309 1.06291)
(1.01867e-17 -3.55228 1.79959)
(-1.41605e-18 -3.38706 2.13416)
(-2.55119e-16 -3.13672 3.90105)
(-9.67304e-16 -2.69831 6.82442)
(-1.76956e-15 -2.89397 9.0441)
(-1.97859e-15 -2.81268 7.92238)
(-9.33353e-16 -0.113331 1.76789)
(1.71941e-17 3.16529 -1.79654)
(2.15461e-17 3.68795 -1.5557)
(-2.59082e-20 3.40318 -0.4881)
(-3.03958e-19 2.98749 0.295691)
(-6.94291e-20 2.49432 0.774098)
(1.12014e-18 1.79354 0.741138)
(7.51805e-18 1.73207 0.343967)
(-1.05292e-17 1.75251 -0.0614781)
(4.85963e-22 -7.52694 1.76581)
(-7.66002e-21 -2.78798 0.216607)
(-8.38432e-20 -5.32497 1.42802)
(3.63799e-19 -4.1334 1.10864)
(5.32925e-18 -4.71711 1.79421)
(5.20048e-18 -4.51459 1.98158)
(-1.11345e-16 -4.4949 3.08359)
(-5.21189e-16 -4.01691 5.10782)
(-1.01972e-15 -3.55707 7.08699)
(-9.91217e-16 -2.21049 5.86704)
(5.7351e-17 0.759362 -0.856258)
(2.34478e-17 3.3235 -1.91513)
(-3.27305e-18 3.60405 -1.23111)
(-7.06871e-19 3.2954 -0.180872)
(8.87482e-20 2.95034 0.357211)
(-5.90624e-20 2.52205 0.702036)
(5.15676e-19 1.90129 0.655954)
(4.81707e-18 1.85623 0.29829)
(-6.42373e-18 1.85421 -0.0951518)
(7.60927e-23 -2.3119 0.422186)
(-4.2604e-21 -1.90786 1.42956)
(-3.55511e-20 -2.6603 1.04421)
(1.30186e-19 -2.11979 1.06959)
(2.31767e-18 -2.38888 1.51008)
(4.41199e-18 -2.44476 1.72009)
(-4.0438e-17 -2.62752 2.41183)
(-2.33946e-16 -2.55639 3.65499)
(-4.77643e-16 -2.42245 5.19946)
(-3.77157e-16 -1.18088 4.13545)
(8.27507e-17 1.34747 -1.49359)
(2.1907e-17 3.21292 -1.84038)
(-2.10624e-18 3.31163 -0.793905)
(-3.38431e-19 3.03945 0.00718587)
(8.72692e-21 2.76852 0.347523)
(-2.25043e-20 2.39808 0.610731)
(1.60301e-19 1.86146 0.554169)
(2.62037e-18 1.82956 0.240446)
(-3.18623e-18 1.81057 -0.00176794)
(-2.07215e-22 -15.6172 3.27748)
(-2.81134e-21 -3.56316 0.503385)
(-1.06891e-20 -9.08208 2.06472)
(6.998e-20 -6.74406 1.65673)
(9.15152e-19 -7.90882 2.29732)
(2.02631e-18 -7.34274 2.31625)
(-1.37318e-17 -7.41378 2.7124)
(-8.86714e-17 -6.63932 3.0216)
(-1.78943e-16 -5.0321 3.57076)
(-9.71264e-17 -0.998287 2.34762)
(2.23246e-17 1.62496 -2.1421)
(5.5085e-18 2.81693 -1.52462)
(-6.3084e-19 2.84037 -0.403875)
(-2.11978e-21 2.6525 0.0768538)
(-1.64395e-21 2.43152 0.323807)
(-5.23039e-22 2.11326 0.523186)
(-1.68384e-20 1.6693 0.458322)
(2.17331e-19 1.66661 0.178327)
(-5.65606e-20 1.64359 -0.0268762)
(3.11939e-22 14.4062 -9.37183)
(-2.34165e-21 0.383201 4.00659)
(-9.30656e-21 5.91879 -2.54395)
(1.02273e-20 3.78798 -1.05683)
(2.76844e-19 4.56596 -1.44488)
(8.09618e-19 3.68358 -0.721438)
(-3.5861e-18 3.18518 -0.08344)
(-2.87208e-17 2.05425 0.934253)
(-5.01487e-17 0.623421 2.19823)
(1.17028e-17 0.357375 2.15624)
(4.42386e-18 2.71586 -1.90866)
(-7.38891e-19 3.46341 -0.952254)
(4.3494e-21 3.68479 -0.177884)
(1.0657e-20 3.60326 0.0997342)
(-9.25657e-22 3.33903 0.284213)
(1.59146e-21 2.95467 0.427816)
(-4.35912e-21 2.43945 0.361904)
(-1.19384e-19 2.39513 0.122439)
(-2.56351e-19 2.32851 0.110559)
(-2.92565e-21 -46.8093 41.2043)
(1.38811e-20 -6.60594 1.14392)
(7.29443e-20 -24.2529 18.2839)
(1.67523e-19 -16.8284 11.2332)
(-8.03561e-20 -20.3926 14.0489)
(-1.7323e-18 -18.4633 11.5738)
(-5.75858e-18 -18.4712 10.5557)
(-8.52701e-18 -15.8722 7.42613)
(8.8413e-18 -10.8366 3.89713)
(4.54842e-17 -0.268271 -3.04613)
(8.91602e-19 3.03313 -0.753342)
(-5.46654e-19 3.85446 -0.213453)
(3.56411e-20 4.10534 -0.043137)
(-1.40011e-21 4.02233 0.0562222)
(1.5415e-22 3.74964 0.123532)
(-3.91879e-22 3.34778 0.178904)
(1.66605e-21 2.80042 0.143954)
(3.17696e-20 2.70677 0.0400389)
(3.25245e-20 2.6149 -0.0630446)
(-1.73948e-18 8.30353 14.7522)
(-5.57018e-15 9.96096 16.6464)
(-4.55087e-15 9.50352 16.2582)
(-4.27202e-15 9.64673 15.9804)
(-4.49348e-15 9.4537 15.8585)
(-6.4377e-15 9.54164 15.679)
(-4.80642e-15 9.38037 15.5883)
(-4.28006e-15 9.43443 15.4678)
(-4.21704e-15 9.32112 15.4214)
(-4.45474e-15 9.37289 15.3768)
(-4.60165e-15 9.29346 15.3643)
(-4.37609e-15 9.24856 15.1786)
(-4.29191e-15 9.26875 15.3442)
(-4.35867e-15 9.30134 15.4228)
(-4.26899e-15 9.28185 15.4834)
(-4.26139e-15 9.32782 15.6324)
(-4.23615e-15 9.47378 15.9381)
(-3.63687e-15 9.77153 16.5615)
(-3.8386e-15 10.1298 17.0566)
(-4.96997e-15 7.27813 12.4877)
(-1.48078e-16 7.61845 13.2318)
(-4.87207e-15 8.9119 15.4497)
(-3.24473e-15 8.52695 14.8797)
(-3.54166e-15 8.59264 14.8801)
(-3.89875e-15 8.48473 14.8291)
(-6.12676e-15 8.52612 14.7545)
(-3.53466e-15 8.43425 14.7126)
(-3.52627e-15 8.48546 14.6679)
(-3.48217e-15 8.43781 14.6689)
(-3.98777e-15 8.49792 14.6633)
(-4.08171e-15 8.48621 14.7013)
(-3.68543e-15 8.57646 14.7638)
(-3.94762e-15 8.57409 14.787)
(-3.63334e-15 8.63682 14.8198)
(-3.7784e-15 8.6564 14.8993)
(-3.95656e-15 8.78115 15.0484)
(-4.00781e-15 8.96851 15.4313)
(-3.25718e-15 9.41035 16.1507)
(-3.52927e-15 9.81503 16.8703)
(-5.1357e-15 6.51692 11.1123)
(-2.14608e-17 7.49074 13.1912)
(-1.61391e-15 9.34944 16.2196)
(-1.24967e-15 8.85142 15.4216)
(-1.44568e-15 8.85243 15.3594)
(-1.38126e-15 8.78834 15.2907)
(-3.80112e-15 8.78234 15.2234)
(-1.64449e-15 8.73952 15.1695)
(-1.70919e-15 8.749 15.1296)
(-1.51115e-15 8.73322 15.1089)
(-1.87004e-15 8.75922 15.0991)
(-1.78614e-15 8.76077 15.1055)
(-1.79421e-15 8.79078 15.1049)
(-1.74456e-15 8.80204 15.1404)
(-1.76675e-15 8.84569 15.1572)
(-1.88011e-15 8.86042 15.2059)
(-1.90966e-15 8.94275 15.29)
(-1.73618e-15 9.08229 15.5785)
(-1.48447e-15 9.50827 16.2975)
(-1.40457e-15 9.9539 17.0989)
(-2.30532e-15 6.27395 10.7482)
(1.59089e-17 7.14509 12.4619)
(3.94081e-16 9.27634 16.1276)
(2.71671e-16 8.7483 15.2227)
(2.86011e-16 8.75067 15.1972)
(3.14865e-16 8.72261 15.1683)
(-2.33562e-15 8.72689 15.1318)
(-1.4136e-15 8.71063 15.1106)
(-1.94666e-15 8.72735 15.0919)
(-1.48996e-15 8.72777 15.0884)
(-1.7089e-15 8.7521 15.0846)
(-1.69008e-15 8.76212 15.0951)
(-1.59229e-15 8.79253 15.1044)
(-1.84334e-15 8.80854 15.1282)
(-1.65562e-15 8.84183 15.1446)
(-1.6516e-15 8.86204 15.1841)
(-1.98258e-15 8.91732 15.239)
(-1.74362e-15 9.01838 15.4399)
(-1.57048e-15 9.43279 16.1512)
(-1.39835e-15 9.88366 16.9719)
(-2.67834e-15 5.89827 10.0865)
(-5.7882e-18 6.97382 12.1707)
(-9.17852e-17 9.38303 16.2778)
(-6.42137e-17 8.83777 15.3634)
(-6.62147e-17 8.83728 15.3097)
(-5.61449e-17 8.81963 15.3045)
(5.56277e-16 8.83287 15.2797)
(3.7976e-16 8.82614 15.2736)
(3.91542e-16 8.84181 15.2597)
(3.56666e-16 8.84483 15.257)
(4.26611e-16 8.86044 15.25)
(4.17056e-16 8.86927 15.2513)
(4.14905e-16 8.88527 15.2507)
(3.99117e-16 8.89911 15.2613)
(4.07437e-16 8.91835 15.2702)
(4.26732e-16 8.93527 15.2905)
(4.36685e-16 8.96024 15.3124)
(4.0915e-16 9.01818 15.421)
(3.53146e-16 9.40892 16.101)
(3.5128e-16 9.81666 16.8282)
(5.63012e-16 5.59391 9.58565)
(1.68941e-18 6.8231 11.8781)
(2.21424e-17 9.40916 16.2851)
(1.66813e-17 8.8716 15.4063)
(1.66323e-17 8.86765 15.3286)
(9.02162e-18 8.85176 15.3428)
(-1.31644e-16 8.8742 15.3276)
(-9.85082e-17 8.86714 15.3326)
(-8.7635e-17 8.884 15.3233)
(-8.60277e-17 8.88463 15.3244)
(-9.72628e-17 8.89693 15.3185)
(-9.54984e-17 8.90255 15.3181)
(-9.50213e-17 8.91282 15.3163)
(-9.21073e-17 8.92289 15.319)
(-9.5865e-17 8.93375 15.324)
(-9.78383e-17 8.94627 15.3315)
(-9.75178e-17 8.95206 15.3314)
(-9.92136e-17 8.98679 15.3903)
(-8.68183e-17 9.3818 16.067)
(-8.446e-17 9.69003 16.6062)
(-1.30496e-16 5.25687 9.00996)
(-4.32875e-19 6.77537 11.7923)
(-5.29776e-18 9.44983 16.3133)
(-4.15568e-18 8.9171 15.4741)
(-4.17514e-18 8.90358 15.3711)
(-1.41401e-18 8.88352 15.3923)
(2.94555e-17 8.90712 15.3826)
(2.37202e-17 8.89618 15.391)
(2.04224e-17 8.91082 15.3854)
(2.12439e-17 8.90738 15.3885)
(2.2734e-17 8.91656 15.3848)
(2.21667e-17 8.9178 15.3846)
(2.13977e-17 8.92427 15.3829)
(2.15047e-17 8.9292 15.3823)
(2.21202e-17 8.93516 15.3844)
(2.20009e-17 8.94134 15.383)
(2.18484e-17 8.93497 15.3675)
(2.29971e-17 8.97085 15.4235)
(2.07276e-17 9.39083 16.1325)
(2.04024e-17 9.56339 16.422)
(2.9995e-17 4.95248 8.51861)
(1.0216e-19 6.77734 11.7853)
(1.23372e-18 9.46053 16.3116)
(9.80198e-19 8.92722 15.4823)
(1.00887e-18 8.89961 15.3654)
(2.19236e-19 8.87895 15.3883)
(-6.54118e-18 8.89833 15.3846)
(-5.44122e-18 8.88597 15.3949)
(-4.79253e-18 8.89666 15.3941)
(-5.12259e-18 8.89102 15.4003)
(-5.28231e-18 8.89742 15.4011)
(-5.24951e-18 8.89573 15.4048)
(-4.94382e-18 8.90032 15.4064)
(-5.08552e-18 8.90149 15.4087)
(-5.07222e-18 8.90537 15.412)
(-5.00896e-18 8.90662 15.4088)
(-5.02288e-18 8.89469 15.3891)
(-5.24621e-18 8.94958 15.475)
(-4.90955e-18 9.39333 16.2303)
(-4.95671e-18 9.43719 16.2933)
(-6.84881e-18 4.75074 8.24057)
(-2.32494e-20 6.81752 11.8412)
(-2.80667e-19 9.45305 16.2941)
(-2.23257e-19 8.91657 15.4584)
(-2.34396e-19 8.87518 15.3341)
(-2.70928e-20 8.85625 15.3565)
(1.48117e-18 8.86948 15.3568)
(1.23102e-18 8.85736 15.3679)
(1.12618e-18 8.86339 15.3709)
(1.19522e-18 8.85682 15.3796)
(1.21723e-18 8.86 15.3842)
(1.2445e-18 8.8564 15.3918)
(1.16686e-18 8.8588 15.3971)
(1.21481e-18 8.85718 15.404)
(1.17077e-18 8.85926 15.4101)
(1.15923e-18 8.85698 15.4102)
(1.17114e-18 8.84352 15.3946)
(1.20157e-18 8.91264 15.5054)
(1.1655e-18 9.35063 16.2793)
(1.21501e-18 9.34062 16.2575)
(1.52498e-18 4.78497 8.39641)
(5.19293e-21 6.88628 11.9374)
(6.36409e-20 9.42174 16.2391)
(5.05511e-20 8.8908 15.4058)
(5.38006e-20 8.84033 15.279)
(1.38173e-21 8.82401 15.3008)
(-3.43174e-19 8.8327 15.3028)
(-2.80493e-19 8.82129 15.3142)
(-2.62829e-19 8.82398 15.319)
(-2.74056e-19 8.81695 15.3289)
(-2.82172e-19 8.81744 15.3353)
(-2.90848e-19 8.81244 15.3451)
(-2.7634e-19 8.81253 15.3524)
(-2.88181e-19 8.80857 15.3623)
(-2.70567e-19 8.80863 15.3705)
(-2.70743e-19 8.80418 15.3758)
(-2.72861e-19 8.79174 15.3678)
(-2.78194e-19 8.84677 15.4592)
(-2.78708e-19 9.23126 16.175)
(-2.95536e-19 9.31768 16.3418)
(-3.23253e-19 5.12128 9.06455)
(-1.15921e-21 6.9904 12.0919)
(-1.47856e-20 9.37952 16.1605)
(-1.17732e-20 8.86373 15.3454)
(-1.26209e-20 8.80997 15.2201)
(2.70234e-22 8.79617 15.2405)
(8.07113e-20 8.80267 15.2425)
(6.52098e-20 8.79211 15.2528)
(6.12234e-20 8.79318 15.2572)
(6.2853e-20 8.78612 15.2663)
(6.60387e-20 8.78504 15.2724)
(6.70767e-20 8.77928 15.2815)
(6.48138e-20 8.77776 15.2884)
(6.73293e-20 8.77217 15.2983)
(6.27335e-20 8.77086 15.306)
(6.36454e-20 8.76521 15.315)
(6.37501e-20 8.75592 15.3131)
(6.4854e-20 8.77537 15.3509)
(6.67995e-20 9.05887 15.9008)
(7.02169e-20 9.35862 16.4666)
(6.65635e-20 5.70384 10.124)
(2.55864e-22 7.13289 12.3147)
(3.52543e-21 9.3327 16.0711)
(2.84098e-21 8.83766 15.2847)
(3.04037e-21 8.78714 15.1687)
(-4.4588e-23 8.77584 15.187)
(-1.9104e-20 8.78163 15.1886)
(-1.55086e-20 8.77252 15.1971)
(-1.44042e-20 8.77326 15.2005)
(-1.45332e-20 8.76707 15.2078)
(-1.5528e-20 8.76571 15.2125)
(-1.53661e-20 8.76039 15.2197)
(-1.50127e-20 8.75861 15.2249)
(-1.55643e-20 8.75289 15.2329)
(-1.46525e-20 8.75165 15.2383)
(-1.50184e-20 8.74542 15.2476)
(-1.4998e-20 8.74128 15.2492)
(-1.51456e-20 8.7349 15.2511)
(-1.58767e-20 8.90263 15.5762)
(-1.64236e-20 9.36375 16.4425)
(-1.38261e-20 6.37592 11.289)
(-5.31033e-23 7.30725 12.5987)
(-8.17489e-22 9.27999 15.9747)
(-6.73832e-22 8.81094 15.227)
(-7.16106e-22 8.76963 15.1295)
(4.2695e-24 8.76049 15.1454)
(4.46072e-21 8.76591 15.1468)
(3.67243e-21 8.75861 15.1537)
(3.37266e-21 8.75951 15.1564)
(3.33311e-21 8.75478 15.1621)
(3.58813e-21 8.75384 15.1659)
(3.46708e-21 8.74984 15.1714)
(3.39735e-21 8.74867 15.1754)
(3.52467e-21 8.74407 15.1816)
(3.37969e-21 8.7438 15.1853)
(3.48343e-21 8.73794 15.1928)
(3.47998e-21 8.73819 15.1952)
(3.47729e-21 8.72654 15.1936)
(3.66546e-21 8.80836 15.3413)
(3.75321e-21 9.2872 16.2334)
(2.87376e-21 6.97089 12.2763)
(9.73009e-24 7.49718 12.9164)
(1.68938e-22 9.21842 15.8691)
(1.43186e-22 8.78377 15.1744)
(1.51653e-22 8.75419 15.0997)
(-6.49285e-24 8.7466 15.1133)
(-9.8802e-22 8.75153 15.1145)
(-8.12849e-22 8.74586 15.1205)
(-7.4181e-22 8.74686 15.1231)
(-7.2502e-22 8.74356 15.1279)
(-7.77091e-22 8.74305 15.1313)
(-7.4349e-22 8.74041 15.136)
(-7.23718e-22 8.73991 15.1396)
(-7.5069e-22 8.73671 15.1449)
(-7.33107e-22 8.73733 15.148)
(-7.60475e-22 8.7327 15.1545)
(-7.55458e-22 8.73483 15.1565)
(-7.49029e-22 8.72607 15.1596)
(-7.90166e-22 8.76885 15.2285)
(-7.97879e-22 9.17707 15.9769)
(-5.49294e-22 7.40376 12.9686)
(-1.53271e-24 7.68844 13.2413)
(-2.88542e-23 9.14975 15.7554)
(-2.49146e-23 8.75859 15.1293)
(-2.67456e-23 8.73986 15.0757)
(4.23302e-24 8.73319 15.0873)
(1.97678e-22 8.73755 15.0885)
(1.55604e-22 8.73309 15.0937)
(1.41577e-22 8.73398 15.0964)
(1.41501e-22 8.73173 15.1007)
(1.4886e-22 8.73139 15.1041)
(1.44362e-22 8.72973 15.1084)
(1.37242e-22 8.72956 15.1119)
(1.42185e-22 8.7274 15.1169)
(1.41599e-22 8.72849 15.12)
(1.48887e-22 8.72495 15.1263)
(1.43553e-22 8.72786 15.1285)
(1.41872e-22 8.72123 15.133)
(1.51349e-22 8.74893 15.1754)
(1.47873e-22 9.0835 15.7796)
(8.2913e-23 7.69257 13.4275)
(2.51985e-25 7.87519 13.5601)
(4.3571e-24 9.07709 15.6359)
(3.54524e-24 8.73675 15.0916)
(4.01919e-24 8.72672 15.0552)
(-1.203e-24 8.72054 15.065)
(-3.51667e-23 8.72426 15.0662)
(-2.50261e-23 8.72074 15.0709)
(-2.26434e-23 8.7213 15.0736)
(-2.46091e-23 8.71977 15.0775)
(-2.51022e-23 8.71937 15.0809)
(-2.5277e-23 8.7183 15.0849)
(-2.27696e-23 8.71815 15.0885)
(-2.37337e-23 8.71664 15.0932)
(-2.44267e-23 8.71779 15.0964)
(-2.61071e-23 8.71481 15.1026)
(-2.3306e-23 8.71833 15.1049)
(-2.30568e-23 8.71228 15.1107)
(-2.54351e-23 8.73181 15.1373)
(-2.40734e-23 9.00713 15.6343)
(-8.46182e-24 7.90174 13.7703)
(-7.58778e-26 8.05791 13.8717)
(-1.11055e-24 9.00121 15.5103)
(-7.30158e-25 8.718 15.0598)
(-8.66638e-25 8.71478 15.0366)
(-1.97035e-26 8.70896 15.0448)
(6.55516e-24 8.71193 15.0462)
(4.64149e-24 8.70934 15.0502)
(4.15221e-24 8.70945 15.0531)
(4.83266e-24 8.70844 15.0566)
(4.99041e-24 8.70792 15.06)
(4.98989e-24 8.7072 15.0637)
(4.29718e-24 8.70691 15.0673)
(4.57901e-24 8.70589 15.0717)
(4.92636e-24 8.70671 15.075)
(5.11908e-24 8.70422 15.081)
(4.30349e-24 8.7079 15.0832)
(4.29084e-24 8.70165 15.0905)
(4.73545e-24 8.71686 15.1052)
(5.15228e-24 8.9331 15.5036)
(1.98156e-24 8.08217 14.074)
(3.43926e-26 8.23928 14.1794)
(5.58506e-25 8.92114 15.3755)
(3.58338e-25 8.70171 15.0324)
(3.9684e-25 8.7037 15.0189)
(1.87699e-25 8.69857 15.0253)
(-1.88887e-24 8.70042 15.0269)
(-1.81116e-24 8.6988 15.0302)
(-1.62708e-24 8.69847 15.033)
(-1.61478e-24 8.69777 15.0361)
(-1.83064e-24 8.69718 15.0394)
(-1.63092e-24 8.69663 15.0428)
(-1.5172e-24 8.69622 15.0464)
(-1.61823e-24 8.6956 15.0504)
(-1.72638e-24 8.69589 15.054)
(-1.65255e-24 8.69428 15.0594)
(-1.58943e-24 8.69727 15.062)
(-1.60003e-24 8.69129 15.0701)
(-1.56608e-24 8.70427 15.0763)
(-2.20761e-24 8.85558 15.3706)
(-1.76567e-24 8.25503 14.366)
(-1.48238e-26 8.42312 14.4924)
(-2.83423e-25 8.83822 15.2312)
(-1.93794e-25 8.6907 15.012)
(-2.03991e-25 8.69524 15.0051)
(-1.11082e-25 8.69184 15.0089)
(8.386e-25 8.69214 15.0105)
(9.94725e-25 8.69117 15.0126)
(9.03263e-25 8.69037 15.0148)
(7.66354e-25 8.68954 15.0171)
(9.21506e-25 8.68865 15.0197)
(7.57093e-25 8.68777 15.0224)
(7.74838e-25 8.6869 15.0254)
(8.02642e-25 8.68606 15.0287)
(8.25402e-25 8.68544 15.0322)
(7.6174e-25 8.68434 15.0364)
(8.4848e-25 8.68533 15.0397)
(8.54321e-25 8.68104 15.0469)
(7.67217e-25 8.69108 15.0483)
(1.16841e-24 8.77266 15.2324)
(1.17381e-24 8.42325 14.6449)
(4.16987e-27 8.61058 14.8239)
(9.28707e-26 8.75272 15.0801)
(6.6666e-26 8.69281 15.0032)
(6.85654e-26 8.695 15.0014)
(3.5198e-26 8.69442 15.0021)
(-2.96909e-25 8.69408 15.0026)
(-3.76209e-25 8.69366 15.0031)
(-3.44794e-25 8.69305 15.0038)
(-2.74292e-25 8.69232 15.0046)
(-3.34137e-25 8.69143 15.0056)
(-2.69546e-25 8.69038 15.0067)
(-2.88154e-25 8.68915 15.008)
(-2.91468e-25 8.68772 15.0095)
(-2.92642e-25 8.68605 15.0113)
(-2.69195e-25 8.68417 15.0133)
(-3.19912e-25 8.68208 15.0156)
(-3.22775e-25 8.67892 15.0189)
(-2.79371e-25 8.67938 15.02)
(-4.23183e-25 8.69418 15.0844)
(-4.47195e-25 8.5934 14.8933)
(7.44089e-15 -0.215199 -2.81584)
(9.51618e-15 -0.259901 -3.70656)
(7.28939e-15 -0.0214008 -2.74931)
(8.02517e-15 0.126214 -2.66937)
(9.06232e-15 0.28447 -2.5036)
(1.43351e-14 0.157098 -2.93552)
(1.15756e-14 0.0977761 -2.09654)
(1.1429e-14 0.204669 -1.98674)
(1.11022e-14 0.287542 -1.57115)
(8.71219e-15 0.743818 -4.43387)
(3.39216e-15 0.676245 -3.83237)
(2.70567e-15 -1.12072 -2.9283)
(4.58619e-15 -0.440321 5.03517)
(5.02071e-15 -1.28002 7.65887)
(5.21274e-15 -1.72974 7.87076)
(5.51428e-15 -2.13108 8.45494)
(8.10936e-15 -3.46502 13.298)
(6.48029e-15 -4.02808 11.5131)
(6.32789e-15 -4.80302 11.9887)
(7.39706e-15 -7.45687 16.9695)
(5.37192e-15 -5.98523 14.8249)
(4.01418e-15 -6.26297 15.1612)
(2.98856e-15 -6.12685 14.4314)
(2.07152e-15 -6.24107 14.1153)
(1.41112e-15 -6.202 13.7818)
(9.90603e-16 -6.2197 13.5601)
(7.17172e-16 -6.18616 13.4004)
(5.01156e-16 -6.14811 13.2474)
(-7.25158e-16 -4.85085 11.3716)
(2.04287e-16 -5.38715 11.9888)
(1.88071e-16 -5.11352 12.019)
(3.93305e-16 -5.16231 12.2231)
(6.84924e-16 -5.06746 12.4321)
(1.09435e-15 -5.02956 12.6499)
(1.3366e-15 -5.00712 12.7611)
(1.16854e-15 -4.90365 12.7969)
(1.17101e-15 -4.79762 12.6592)
(1.0378e-15 -4.58509 12.2194)
(2.43276e-16 -0.253392 1.40291)
(1.78717e-16 -3.38578 3.94439)
(1.40683e-16 -0.319711 -3.11648)
(1.67918e-16 -5.12579 0.790572)
(6.4429e-17 -2.79046 -0.628774)
(-1.73433e-17 -3.0882 -0.449617)
(-1.14782e-16 -3.79738 -0.759305)
(-1.6146e-16 -2.72465 -0.772056)
(-3.526e-16 -3.36156 -1.24101)
(-4.89979e-16 -2.92988 -1.56155)
(-5.46098e-16 -2.28984 -1.43455)
(-8.67106e-16 -2.80676 -2.13214)
(-7.45461e-16 -1.5594 -1.69731)
(-1.23097e-15 -1.8725 -2.54058)
(-1.45141e-15 -1.02287 -2.02101)
(-1.51308e-15 -0.415087 -1.2796)
(-2.92093e-15 -0.670093 -1.51732)
(-3.68622e-15 0.168621 -0.014877)
(-2.36459e-15 0.332565 0.15122)
(-3.18512e-15 0.282661 0.961846)
(-7.80303e-16 0.168559 0.712613)
(-7.72882e-15 0.34954 0.992622)
(8.89562e-22 0.132959 -0.514595)
(1.24949e-20 0.111764 -1.6986)
(3.48616e-20 0.028991 -2.52464)
(1.4716e-20 -0.0790102 -2.58967)
(3.16044e-21 -0.170495 -1.76288)
(1.32511e-20 -0.142594 -0.176536)
(-1.60962e-18 -0.0167481 1.19573)
(-9.79402e-18 -0.0196703 1.65928)
(-2.38922e-17 -0.068804 2.26297)
(-2.9626e-17 -0.115309 3.04739)
(1.90677e-17 -0.175552 4.43401)
(2.16734e-16 -0.112992 6.12222)
(6.50664e-16 0.139693 6.15461)
(1.22431e-15 0.409735 3.60992)
(1.63905e-15 0.684181 -1.2037)
(1.40176e-15 0.54627 -7.13942)
(6.81406e-16 -0.199888 -11.227)
(2.67689e-16 -0.730631 -6.65866)
(-3.16551e-15 -0.128571 1.76735)
(-1.25891e-20 0.330941 -0.239342)
(-9.09725e-20 0.325138 -1.3285)
(-7.19711e-20 0.154463 -2.04947)
(6.18969e-21 -0.0627157 -2.49639)
(2.39428e-20 -0.299672 -2.23209)
(5.27419e-20 -0.454592 -1.17604)
(-2.39975e-18 -0.352298 0.970119)
(-2.55845e-17 -0.230029 2.77682)
(-5.85207e-17 -0.231277 3.71343)
(-4.23143e-17 -0.305247 4.42428)
(1.47619e-16 -0.412785 5.58537)
(7.25413e-16 -0.24304 6.81589)
(1.73564e-15 0.359796 6.57335)
(2.7626e-15 1.02701 4.49951)
(3.61148e-15 1.74251 0.131391)
(3.66867e-15 1.60627 -5.59193)
(2.38409e-15 -0.0375067 -10.3407)
(9.36957e-16 -1.84505 -10.1767)
(-2.99507e-15 -1.18899 -0.883877)
(-1.97087e-19 0.453677 -0.027582)