/*--------------------------------*- C++ -*----------------------------------*\
| =========                 |                                                 |
| \\      /  F ield         | OpenFOAM: The Open Source CFD Toolbox           |
|  \\    /   O peration     | Version:  4.1                                   |
|   \\  /    A nd           | Web:      www.OpenFOAM.org                      |
|    \\/     M anipulation  |                                                 |
\*---------------------------------------------------------------------------*/
FoamFile
{
    version     2.0;
    format      ascii;
    class       volScalarField;
    location    "19";
    object      p;
}
// * * * * * * * * * * * * * * * * * * * * * * * * * * * * * * * * * * * * * //

dimensions      [0 2 -2 0 0 0 0];

internalField   nonuniform List<scalar> 
1680
(
921.334
-277.937
-243.672
-456.816
-531.175
-378.039
-320.391
-289.123
-241.026
-215.672
-187.479
-162.769
-142.567
-120.24
-115.859
-103.007
-96.7424
-91.6891
-81.4124
-91.6461
-79.3457
-97.8098
-70.732
-71.3134
-69.7643
-68.0703
-66.6056
-65.2538
-63.1701
-62.3339
-58.8513
-81.5922
-63.3699
-62.602
-60.6405
-59.2985
-57.0533
-56.4053
-50.9224
-54.1444
-93.4236
-69.9991
-65.7964
-40.679
-48.3896
-47.2243
-41.8021
-28.7533
-32.1587
-31.3678
-27.0835
-27.8458
-27.715
-27.3155
-27.228
-27.0714
-26.907
-26.854
-26.5679
-26.4906
61.188
36.5622
-18.2813
-32.341
-25.4677
-76.0979
-62.8667
7.62048
7.61319
-5.43139
-9.15504
-9.46907
-24.4531
-75.7262
-115.104
-118.769
-83.3544
-44.4537
-17.7209
57.4779
31.4622
-18.7066
-34.1849
-35.3526
-102.937
-90.1697
-1.92675
2.38152
-7.68651
-11.5034
-13.7097
-28.9696
-86.0775
-124.888
-122.633
-77.1834
-44.5065
-24.3458
40.4516
20.5909
-27.9304
-34.9712
-36.7411
-116.273
-105.022
-11.0652
-2.51313
-9.79719
-13.403
-17.682
-32.957
-91.7889
-129.23
-122.718
-71.1836
-46.1895
-23.1031
0.867015
-0.229026
-49.4025
-39.1431
-32.6145
-118.058
-101.336
-18.8011
-6.68884
-11.5864
-14.9709
-20.8828
-36.4222
-93.581
-130.318
-121.585
-66.0033
-46.964
-20.3714
-76.4822
-36.2603
-85.8092
-51.9851
-29.4107
-116.986
-96.5221
-26.0358
-9.91163
-12.9535
-16.0665
-23.3227
-39.2022
-92.5437
-129.437
-119.174
-62.4572
-45.4512
-25.9272
-214.52
-94.2532
-130.919
-68.6202
-33.1573
-116.938
-97.0645
-32.5362
-12.033
-13.843
-16.6893
-24.7828
-40.678
-89.6817
-124.845
-113.192
-59.283
-44.4412
-41.549
-444.818
-180.519
-172.782
-76.591
-43.9191
-115.992
-95.5317
-36.9149
-13.1363
-14.2287
-16.915
-25.3636
-40.6687
-84.3307
-115.715
-103.52
-55.7598
-46.1395
-47.6882
-807.325
-302.662
-210.037
-80.3549
-55.1975
-112.554
-92.0444
-38.7755
-13.2715
-14.0887
-16.8011
-25.2985
-39.5816
-77.2339
-104.162
-92.3147
-52.2732
-46.7725
-50.1234
-1358.66
-475.854
-237.495
-83.547
-65.9653
-101.357
-86.7171
-37.3767
-12.6282
-13.3563
-16.3752
-24.7491
-37.8672
-69.9295
-92.5238
-81.432
-49.0053
-46.3246
-55.6676
-2142.81
-715.606
-268.124
-81.1331
-73.7226
-87.6135
-80.7887
-30.1317
-11.7034
-11.9698
-15.629
-23.7907
-35.7319
-63.0206
-81.8865
-71.8289
-46.1626
-47.35
-59.7784
-3204.64
-1028.94
-304.301
-71.1647
-78.9119
-76.0561
-76.8195
-24.8894
-11.3122
-9.89044
-14.505
-22.4678
-33.3659
-56.8074
-72.6991
-63.9091
-43.4414
-48.2563
-62.9784
-4430.25
-1406.41
-340.613
-55.4275
-83.5976
-66.3019
-74.8597
-22.7761
-11.1267
-7.18505
-12.8699
-20.6647
-30.5466
-50.7502
-64.3559
-57.0489
-40.541
-48.3985
-70.7747
-5816.6
-1805.89
-370.119
-35.8447
-88.1779
-58.3688
-72.3119
-20.9293
-10.6239
-4.30521
-10.7118
-18.4508
-27.7192
-45.6384
-57.534
-52.126
-39.1156
-49.6089
-81.6979
-6771.24
-2134.18
-369.239
-15.287
-90.1083
-51.1048
-63.9611
-17.1128
-9.05883
-1.62055
-7.93334
-15.1874
-23.4024
-38.9442
-49.5782
-45.9457
-35.7683
-48.6361
-92.8751
-7930.72
-2294.85
-312.806
3.0993
-90.9585
-45.4683
-53.9831
-13.1875
-6.34467
-0.384573
-5.32285
-12.262
-20.5813
-35.4357
-44.9851
-42.6144
-33.9321
-52.3388
-103.969
-7099.47
-2320.18
-272.598
14.452
-97.0754
-44.1505
-49.056
-10.5462
-4.88652
-0.031422
-1.97937
-6.077
-11.3022
-23.0744
-32.554
-31.3991
-26.7191
-44.5863
-123.004
-9389.7
-1992.09
-264.586
9.40257
-85.9388
-38.669
-41.1743
-8.57882
-4.38292
-1.49585
-1.69233
-7.03375
-14.8554
-28.593
-35.4538
-34.6408
-24.6235
-62.2884
-117.627
-3463.94
563.551
-70.2024
-5.69864
-52.4512
-23.8645
-25.7049
-5.34544
-3.42577
0.372544
4.51568
9.96581
14.4414
9.61728
-2.62487
-2.45361
-8.37917
-18.175
-185.05
-15338
1340.23
7.13955
-31.3863
-135.738
-52.8578
-48.9141
-6.37934
-3.84759
-4.84932
-5.69336
-17.4807
-31.4664
-48.1509
-42.5907
-41.1564
-13.9543
-125.068
3.89267
16135.2
-5970.58
-607.755
-60.3268
-233.193
-89.8234
-79.5288
-10.753
-2.03751
6.72673
20.7702
57.6517
91.5266
105.124
65.9395
67.9983
-7.74444
254.177
-504.625
19.5563
19.3657
19.4573
19.0994
18.7548
18.3375
17.8951
17.4049
16.8972
16.3766
15.8263
15.319
14.6125
13.7472
12.9607
12.1594
11.4442
10.6291
10.1169
9.01725
3.6739
4.08174
4.33705
4.60716
4.8408
5.03469
5.21278
5.34547
5.46153
5.53269
5.58639
5.60324
5.57367
5.51163
5.43584
5.32226
5.21988
5.07611
4.94728
4.76317
12.3938
12.1333
12.023
11.8588
11.7393
11.5959
11.4731
11.3362
11.2089
11.0702
10.9376
10.7905
10.6539
10.4951
10.3504
10.178
10.0337
9.84368
9.71431
9.4634
9.8307
9.84219
9.85465
9.84817
9.85845
9.84637
9.8462
9.82961
9.81951
9.7968
9.7781
9.74767
9.72212
9.68221
9.6527
9.60132
9.57096
9.5081
9.47616
9.39044
11.9068
11.8013
11.7656
11.6881
11.642
11.5745
11.524
11.4616
11.4091
11.3489
11.2959
11.2357
11.1835
11.1209
11.0714
11.0036
10.9601
10.8829
10.8497
10.7485
11.9992
11.9465
11.9346
11.8908
11.8713
11.832
11.8068
11.7699
11.7412
11.705
11.6743
11.6372
11.6063
11.5664
11.5376
11.4924
11.4689
11.4148
11.4008
11.3307
12.8856
12.8152
12.796
12.7417
12.7136
12.6665
12.6338
12.5907
12.5556
12.5145
12.4787
12.4381
12.4031
12.361
12.3291
12.2827
12.2571
12.2026
12.1881
12.1183
13.4149
13.3557
13.3409
13.2943
13.2715
13.2308
13.2034
13.1662
13.1362
13.1008
13.0696
13.0346
13.0039
12.9674
12.9394
12.8988
12.8767
12.8281
12.8167
12.7542
14.059
13.9989
13.9832
13.9363
13.9127
13.8721
13.8442
13.8072
13.7769
13.7421
13.7107
13.6766
13.6458
13.6105
13.5823
13.5434
13.5211
13.4744
13.4628
13.4026
14.6226
14.5665
14.5518
14.5078
14.4856
14.4475
14.4212
14.3866
14.3578
14.3252
14.2954
14.2636
14.234
14.2013
14.174
14.1379
14.1162
14.0726
14.0614
14.0044
15.1855
15.1313
15.1168
15.0743
15.0526
15.0158
14.9901
14.9567
14.9288
14.8975
14.8682
14.838
14.8088
14.778
14.7508
14.7169
14.695
14.6537
14.6423
14.5878
15.7147
15.6632
15.6491
15.6086
15.5877
15.5526
15.528
15.4961
15.4692
15.4394
15.4112
15.3826
15.3541
15.3254
15.2984
15.2669
15.245
15.2064
15.1947
15.1429
16.2236
16.1745
16.1605
16.1218
16.1015
16.0678
16.044
16.0134
15.9874
15.959
15.9315
15.9045
15.8765
15.8497
15.8228
15.7938
15.7714
15.7357
15.7234
15.6743
16.708
16.6614
16.6475
16.6107
16.5908
16.5586
16.5356
16.5063
16.4811
16.4539
16.4273
16.4016
16.3742
16.3493
16.3223
16.2959
16.2729
16.2402
16.2271
16.1808
17.1692
17.1257
17.1121
17.0774
17.0585
17.0278
17.006
16.9781
16.954
16.9282
16.9026
16.8782
16.8516
16.8283
16.8013
16.7775
16.7535
16.7241
16.7098
16.6664
17.5954
17.5552
17.542
17.5097
17.4925
17.4637
17.4435
17.418
17.3956
17.372
17.3485
17.326
17.3014
17.2804
17.2543
17.2341
17.2093
17.1842
17.1685
17.1291
17.9958
17.9588
17.9443
17.9123
17.8963
17.8681
17.8481
17.8239
17.8019
17.7794
17.7572
17.7358
17.7131
17.6937
17.6692
17.6532
17.6275
17.6091
17.5932
17.559
18.3987
18.3716
18.3605
18.3282
18.3154
18.29
18.2704
18.2479
18.2258
18.2029
18.1794
18.1555
18.1304
18.1065
18.0782
18.058
18.0238
18.0086
17.9824
17.9447
18.6749
18.666
18.6812
18.6607
18.661
18.6537
18.6491
18.6438
18.6382
18.6318
18.6242
18.6147
18.6026
18.5878
18.5675
18.5465
18.5079
18.4865
18.4146
18.3577
18.6413
18.5831
18.6212
18.632
18.6496
18.6673
18.6862
18.7069
18.7296
18.7546
18.7824
18.8135
18.8482
18.8869
18.9304
18.9794
19.0321
19.1007
19.142
19.3052
-26.49
-26.5316
-26.5277
-26.4377
-26.4598
-26.3502
-26.7269
-27.1243
-26.9649
-26.3754
-30.6719
-29.9343
-29.4976
-38.838
-42.2971
-40.5404
-37.9787
-59.7234
-56.041
-68.8027
-58.1656
-53.0166
-52.7738
-49.8339
-47.6763
-44.9886
-42.1728
-40.7719
-48.1606
-30.7994
-29.7127
-28.1842
-27.312
-26.4343
-25.7847
-24.8738
-24.7953
-30.6105
-62.5864
-45.077
-55.4807
-35.8693
-60.778
-50.6362
-58.5035
-50.8299
-41.1178
-55.1385
-48.0727
-51.2628
-47.0861
-44.7074
-52.6102
-50.5108
-52.7343
-57.1119
-57.364
-57.5219
-57.0047
-57.202
39.217
38.256
30.7403
39.7315
39.6868
38.1998
33.5292
31.8729
28.0645
21.972
27.3914
20.7008
15.3666
17.6759
7.86716
-40.7527
-109.33
-102.179
-71.6537
39.2112
38.3158
30.2104
39.2663
39.4971
38.0071
33.4132
31.8852
27.5361
21.1023
27.3817
20.7521
15.0205
17.1355
6.56105
-43.2322
-114.121
-107.125
-73.7567
38.9135
38.3225
29.5453
38.4269
39.0834
37.6423
33.2064
31.9815
26.6334
19.0801
27.195
20.6058
14.2702
15.874
3.76135
-47.4443
-121.116
-117.039
-76.721
38.2946
38.3497
28.7417
37.182
38.5083
37.1697
32.9464
32.1215
25.5071
16.1096
26.5676
20.1616
13.317
14.186
-0.0584846
-52.9271
-129.462
-127.982
-80.6003
37.5709
38.4715
27.8462
35.4785
37.7791
36.6408
32.6604
32.3245
24.3086
12.4084
25.4366
19.764
12.4199
12.533
-4.3017
-58.9634
-137.808
-138.735
-84.1618
36.9045
38.6985
26.8782
33.271
36.9113
36.0887
32.3582
32.6067
22.8006
8.25879
23.7792
19.8905
11.4962
11.0978
-8.30767
-64.8703
-145.355
-148.165
-88.7737
36.4151
39.0054
25.8259
30.5294
35.9185
35.5104
32.0621
32.9278
20.6268
3.41723
21.8813
19.9544
10.1752
9.71227
-11.7454
-70.1971
-151.458
-155.425
-92.433
36.1797
39.3463
24.6537
27.2279
34.8024
34.8902
31.7832
33.4923
18.943
-0.229212
19.6163
18.7994
8.49744
8.07984
-14.7986
-74.7209
-155.608
-159.953
-95.2225
36.2663
39.6787
23.3087
23.3727
33.5405
34.1898
31.5152
35.014
19.7438
-0.0494208
16.9904
16.5097
6.94047
5.98501
-17.8775
-78.3558
-157.642
-161.269
-96.6393
36.7881
40.0638
21.6263
18.9947
32.0908
33.3244
31.2553
37.1487
22.4761
2.37369
15.1128
13.8409
5.86286
3.37005
-21.236
-81.114
-157.222
-159.832
-94.8953
37.8575
40.5169
19.3157
14.0278
30.3831
32.1757
30.9228
38.4915
26.3933
4.78666
14.477
11.6669
5.42141
0.109554
-25.0631
-83.1742
-154.572
-155.86
-92.622
39.5534
41.0821
15.7056
8.49322
28.3264
30.5865
30.1311
39.2325
29.6784
5.99275
15.2366
10.1008
4.71634
-3.95103
-29.5588
-84.6793
-149.987
-149.835
-85.8049
42.314
41.7497
9.86694
2.95577
25.8569
28.3465
28.5943
39.5147
31.3634
6.03883
15.1246
8.76385
3.37779
-8.85291
-34.9347
-85.8995
-143.584
-141.239
-82.8071
45.492
41.9904
2.57269
-2.46877
22.9288
25.2092
26.1861
39.1642
31.5636
5.44509
12.9924
7.4683
1.54111
-14.4137
-41.2031
-87.4738
-139.886
-134.316
-74.9301
48.1358
41.597
-4.14371
-8.00798
19.4576
20.7945
22.6585
38.0463
30.494
4.58022
10.0652
6.15194
-0.979549
-20.4738
-48.4272
-88.8724
-131.339
-124.782
-63.1901
50.5718
41.2079
-10.0963
-13.6897
15.2905
14.5634
17.5888
36.0579
28.4065
3.51928
6.92989
4.58801
-4.09651
-26.868
-56.444
-91.2267
-119.349
-104.879
-39.4578
53.1588
40.8297
-15.3818
-19.0404
10.1951
5.75802
10.3135
33.0698
25.4808
2.22017
3.74076
2.66829
-7.53969
-33.7542
-65.1403
-94.4738
-109.372
-86.2604
-26.6871
55.8879
40.2373
-19.2057
-23.3113
3.86369
-6.69519
-0.176467
28.9109
21.8388
0.640234
0.531425
0.352207
-11.2621
-41.6995
-75.0126
-98.6705
-100.362
-69.4555
-19.864
58.5803
39.2049
-21.2282
-26.0469
-3.95739
-24.1269
-15.2357
23.3643
17.5758
-1.2103
-2.77623
-2.41071
-15.3398
-51.3597
-86.8659
-104.224
-93.6547
-55.6258
-17.679
60.6856
38.5214
-20.5571
-28.5267
-13.6747
-47.559
-36.1884
16.2504
12.7815
-3.24258
-6.13315
-5.66283
-19.7805
-63.0787
-101.032
-111.399
-88.7429
-48.1225
-16.9782
669.751
586.773
537.399
480.958
431.771
384.341
340.271
298.69
259.612
222.764
187.99
155.096
123.868
94.2194
66.1695
38.8925
12.8372
-7.29875
-30.5077
-67.0631
-25.0215
-47.6095
-39.6816
-50.8691
-53.8215
-60.6041
-65.7105
-71.0904
-75.7469
-79.8764
-83.2522
-85.8274
-87.5107
-88.2269
-87.8821
-86.4965
-84.075
-80.7857
-77.7112
-74.9036
-38.1123
-44.2254
-35.6431
-41.9922
-39.4704
-42.2112
-42.8911
-44.7687
-46.3378
-48.1304
-49.8659
-51.585
-53.2104
-54.7132
-56.0343
-57.016
-57.3762
-56.4184
-54.9733
-52.3273
-20.6643
-23.1046
-19.7822
-24.8874
-23.0442
-25.9334
-25.9963
-27.2695
-27.648
-28.0634
-28.1106
-28.0191
-27.7953
-27.5237
-27.3377
-27.2859
-27.3484
-26.9614
-25.7547
-23.8719
-19.4218
-21.3725
-18.7387
-21.7661
-18.8107
-20.3896
-18.7038
-18.8519
-17.9499
-17.5897
-17.0616
-16.7408
-16.4947
-16.3477
-16.2815
-16.4515
-16.9533
-17.4532
-17.8422
-18.8829
-33.0307
-36.6029
-35.1458
-38.7512
-37.5614
-40.2523
-40.0789
-41.7779
-42.3256
-43.4903
-44.2582
-45.1239
-45.8343
-46.5582
-47.2976
-48.3645
-49.9498
-51.6855
-53.945
-56.3449
-65.6416
-69.8102
-69.3873
-73.1845
-73.2788
-76.7271
-77.8392
-80.8803
-82.977
-85.9567
-88.692
-91.5957
-94.257
-96.6891
-98.6756
-100.361
-101.69
-102.157
-102.53
-100.653
-82.3815
-84.6839
-83.3379
-85.8127
-84.6942
-86.8649
-86.5754
-88.0555
-88.4526
-89.4223
-89.9589
-90.3122
-90.1492
-89.4331
-88.1576
-86.283
-84.1619
-81.625
-79.7501
-76.2476
-62.7921
-62.195
-59.8685
-60.2626
-57.6811
-57.561
-55.5167
-54.5484
-52.8543
-51.3497
-49.6383
-47.8395
-45.9321
-43.9058
-41.8296
-39.6384
-37.5022
-35.1299
-33.2336
-30.2249
-37.1954
-35.253
-33.0596
-32.5425
-30.0581
-29.2635
-27.2745
-25.9755
-24.3562
-22.8657
-21.363
-19.8696
-18.3957
-16.9143
-15.4498
-13.9371
-12.4868
-10.8688
-9.64568
-7.93827
-14.1227
-12.0741
-10.3647
-9.69431
-7.76946
-7.04953
-5.5194
-4.48327
-3.24021
-2.06529
-0.869279
0.343887
1.55457
2.75034
3.91747
5.09694
6.25656
7.57983
8.57643
9.87297
4.23296
6.55678
8.06954
9.26133
11.1478
12.279
14.0345
15.3113
16.6563
17.6093
18.1998
18.2308
17.6499
16.5112
15.1962
14.2014
14.1635
14.7786
15.5413
15.6219
22.496
23.2014
23.4088
23.2565
23.4591
22.8935
22.5367
21.4241
20.1362
18.3046
16.186
13.7509
11.141
8.48079
6.04457
4.14273
2.94342
2.22034
2.34879
0.798873
12.7563
9.18464
7.34306
4.97478
3.53693
1.40779
-0.228592
-2.22379
-4.01549
-6.0272
-8.08884
-10.4208
-13.0036
-15.8204
-18.616
-21.1036
-22.7252
-22.6366
-22.5419
-26.7156
-36.803
-43.3735
-47.3843
-52.1861
-56.7315
-61.8769
-66.8413
-72.0494
-76.8806
-81.467
-85.4811
-88.9147
-91.5683
-93.3487
-94.1594
-94.0811
-93.3263
-92.637
-93.1409
-93.9578
-81.35
-86.3966
-89.8715
-93.1845
-96.0878
-99.0713
-101.575
-103.852
-105.481
-106.626
-107.227
-107.411
-107.235
-106.792
-106.208
-105.53
-104.856
-104.037
-103.34
-100.569
-98.8488
-98.8488
-96.5715
-94.2872
-92.4224
-90.8489
-89.2438
-87.7781
-86.3391
-85.0158
-83.7911
-82.6678
-81.6323
-80.6159
-79.6007
-78.3898
-77.0302
-74.8573
-72.8426
-69.8784
-76.3219
-73.9278
-70.1241
-66.3359
-63.1605
-60.5074
-58.0906
-55.974
-54.0431
-52.3173
-50.7532
-49.3049
-47.9365
-46.5808
-45.2366
-43.8051
-42.4086
-40.8279
-39.6149
-37.861
-50.993
-47.32
-45.6184
-43.3627
-41.6603
-40.0671
-38.6278
-37.3766
-36.2356
-35.2269
-34.3025
-33.429
-32.5966
-31.754
-30.9223
-30.035
-29.1981
-28.2202
-27.5008
-26.4514
0.248408
1.83698
1.08558
0.682173
-0.817588
-2.25008
-3.83888
-5.47172
-7.07759
-8.6344
-10.1058
-11.4324
-12.5686
-13.4638
-14.1523
-14.6276
-14.9315
-15.083
-15.1539
-15.2412
)
;

boundaryField
{
    outletWallLeft
    {
        type            fixedValue;
        value           uniform 0;
    }
    fineWallsLeft
    {
        type            zeroGradient;
    }
    fineFrontAndBackLeft
    {
        type            zeroGradient;
    }
    fineplugLeft
    {
        type            cyclicAMI;
        value           nonuniform List<scalar> 
20
(
-0.224095
5.75494
1.41941
1.01682
1.051
1.05594
0.994989
0.873181
0.883758
0.634528
0.890747
4.06209
-0.984005
-1.52262
-1.75952
-2.13221
-2.25531
-2.77781
-2.09097
-3.61509
)
;
    }
    symmetryWallLeft
    {
        type            cyclicAMI;
        value           nonuniform List<scalar> 
20
(
-26.4903
-17.3496
-46.2881
-86.0487
-115.084
-108.068
-69.4025
-22.1168
-7.56595
-7.64409
-4.33698
10.1974
11.9354
-49.5275
-61.8284
-19.5712
-30.4338
-19.4192
37.5418
60.9368
)
;
    }
    inletOutletLeft
    {
        type            cyclicAMI;
        value           nonuniform List<scalar> 
20
(
-3.61509
-2.09097
-2.77781
-2.25531
-2.13221
-1.75952
-1.52262
-0.984005
4.06209
0.890747
0.634528
0.883758
0.873181
0.994989
1.05594
1.051
1.01682
1.41941
5.75494
-0.224095
)
;
    }
    inletLeft
    {
        type            zeroGradient;
    }
    inletWallsLeft
    {
        type            zeroGradient;
    }
    inletFacesLeft
    {
        type            zeroGradient;
    }
    fineWallsRight
    {
        type            zeroGradient;
    }
    outletWallRight
    {
        type            zeroGradient;
    }
    fineplugRight
    {
        type            cyclicAMI;
        value           nonuniform List<scalar> 
20
(
-23.8261
-22.7265
-22.6212
-21.912
-21.2374
-20.3196
-19.2056
-18.2092
-15.6987
-14.2445
-12.8501
-11.2989
-9.83978
-8.35797
-6.95701
-5.62882
-4.41333
-5.25363
-5.64626
-8.81668
)
;
    }
    fineFrontAndBackRight
    {
        type            zeroGradient;
    }
    symmetryWallRight
    {
        type            cyclicAMI;
        value           nonuniform List<scalar> 
20
(
-26.4903
-17.3496
-46.2881
-86.0487
-115.084
-108.068
-69.4025
-22.1168
-7.56595
-7.64409
-4.33698
10.1974
11.9354
-49.5275
-61.8284
-19.5712
-30.4338
-19.4192
37.5418
60.9368
)
;
    }
    inletOutletRight
    {
        type            cyclicAMI;
        value           nonuniform List<scalar> 
20
(
-23.8261
-22.7265
-22.6212
-21.912
-21.2374
-20.3196
-19.2056
-18.2092
-15.6987
-14.2445
-12.8501
-11.2989
-9.83978
-8.35797
-6.95701
-5.62882
-4.41333
-5.25363
-5.64626
-8.81668
)
;
    }
    inletRight
    {
        type            zeroGradient;
    }
    inletWallsRight
    {
        type            zeroGradient;
    }
    inletFacesRight
    {
        type            zeroGradient;
    }
}


// ************************************************************************* //
