/*--------------------------------*- C++ -*----------------------------------*\
| =========                 |                                                 |
| \\      /  F ield         | OpenFOAM: The Open Source CFD Toolbox           |
|  \\    /   O peration     | Version:  4.1                                   |
|   \\  /    A nd           | Web:      www.OpenFOAM.org                      |
|    \\/     M anipulation  |                                                 |
\*---------------------------------------------------------------------------*/
FoamFile
{
    version     2.0;
    format      ascii;
    class       volVectorField;
    location    "19";
    object      U;
}
// * * * * * * * * * * * * * * * * * * * * * * * * * * * * * * * * * * * * * //

dimensions      [0 1 -1 0 0 0 0];

internalField   nonuniform List<vector> 
1680
(
(-1.33063e-14 -261.754 -187.752)
(-8.63762e-15 49.636 -172.652)
(-3.7417e-15 1.21341 -60.7046)
(-1.45726e-15 -1.65175 -3.67825)
(-3.45094e-15 8.64517 1.0896)
(9.9331e-16 3.778 3.78879)
(4.08186e-16 2.58584 2.94794)
(2.45546e-16 3.53584 2.50667)
(7.79033e-16 4.39492 2.95211)
(-8.65416e-17 3.51923 1.93612)
(-4.70495e-16 4.36731 2.18513)
(-2.24062e-16 3.91935 2.16364)
(-1.89612e-16 3.83209 2.7266)
(-2.6226e-16 4.78323 4.09879)
(-2.16291e-16 3.66073 3.22308)
(-3.38001e-16 4.363 4.41608)
(-1.98938e-16 3.60394 3.65625)
(-1.88564e-16 2.97427 4.25273)
(-6.60628e-17 4.98823 5.11885)
(1.80913e-16 1.28776 1.45366)
(-7.24808e-18 3.24165 5.42497)
(7.28806e-16 1.45572 2.55373)
(-2.93395e-15 4.16715 8.10419)
(-3.45328e-15 4.53494 8.42753)
(-3.62059e-15 4.68306 8.79011)
(-4.97554e-15 4.79572 9.20239)
(-4.48755e-15 4.94879 9.64845)
(-4.31782e-15 5.02021 10.0936)
(-4.29559e-15 5.18423 10.563)
(-4.31251e-15 5.10884 10.9089)
(-4.21217e-15 5.49232 11.567)
(-3.02323e-15 4.85739 9.27623)
(-4.32475e-15 6.97177 12.9098)
(-4.22744e-15 7.10369 13.3491)
(-4.36218e-15 7.1772 13.7213)
(-4.27871e-15 7.1724 14.0537)
(-4.32975e-15 7.29937 14.3784)
(-4.41422e-15 7.13696 14.5581)
(-3.94171e-15 7.50741 15.4419)
(-4.92979e-15 7.13034 14.2027)
(-4.17397e-15 9.75786 15.7371)
(-2.30728e-15 7.0675 11.4792)
(-2.01172e-15 6.08626 10.8391)
(-2.5484e-15 6.56433 14.0931)
(-1.77978e-15 4.90305 10.1834)
(-1.7906e-15 4.62896 9.97604)
(-1.79257e-15 3.79934 9.62186)
(-2.23205e-15 3.4069 11.4932)
(-1.46425e-15 2.33611 7.52949)
(-1.48386e-15 2.12538 7.25886)
(-1.04793e-15 0.888635 6.47404)
(-5.3651e-16 0.56053 3.01894)
(5.41838e-16 0.342085 2.5524)
(-1.97378e-15 0.310131 2.74077)
(1.26048e-14 -0.719329 -2.41503)
(8.08756e-15 -0.412638 -2.99315)
(1.08821e-14 -0.254041 -3.48626)
(1.14859e-14 -0.19691 -3.88481)
(1.2702e-14 0.166315 -4.97911)
(4.00028e-15 0.202983 -3.5956)
(1.29052e-15 -2.69659 4.43908)
(3.84856e-15 5.64427 6.98014)
(2.68121e-15 -0.261805 -4.63265)
(3.66025e-15 9.08574 -14.7384)
(2.98762e-15 10.5824 -14.0097)
(3.58359e-15 2.6562 -15.9144)
(1.7539e-15 -6.42828 -12.7551)
(-1.33553e-15 -8.24029 -5.06775)
(-2.34501e-15 -9.00676 -2.52584)
(-2.61628e-15 -8.22339 -1.52438)
(-2.81549e-15 -6.09464 0.109638)
(-2.51364e-15 -3.76039 5.37665)
(-3.30865e-15 -3.98271 7.35048)
(-4.64471e-15 -3.85767 9.97892)
(-5.44686e-15 0.149623 12.7191)
(-5.15715e-15 4.70345 14.2182)
(-4.13393e-15 6.78237 16.9858)
(1.46864e-15 5.00234 14.5793)
(1.05857e-14 2.22227 5.64317)
(1.78661e-15 -3.78797 7.13146)
(4.21994e-15 6.75158 10.3362)
(3.89032e-15 2.36284 -7.01305)
(3.66372e-15 9.84531 -17.2804)
(2.17239e-15 10.44 -9.85727)
(2.5405e-15 2.61496 -9.98675)
(1.89207e-15 -7.32456 -12.2714)
(-1.12303e-15 -9.18681 -5.63874)
(-2.37398e-15 -9.34259 -3.37306)
(-2.70199e-15 -8.44744 -2.63315)
(-2.89981e-15 -6.77358 -1.63098)
(-2.87796e-15 -4.50911 3.20758)
(-3.66626e-15 -4.3818 5.95583)
(-4.566e-15 -4.25608 7.2551)
(-4.52262e-15 -0.274212 7.86389)
(-4.42546e-15 4.13587 8.7007)
(-4.73238e-15 6.38719 12.8996)
(-4.04221e-15 5.82983 15.1992)
(2.67608e-15 4.37994 9.78849)
(2.21519e-15 -5.66681 9.40849)
(4.55759e-15 8.43043 14.2003)
(3.96641e-15 5.3375 -10.1563)
(3.33061e-15 9.6364 -18.3659)
(1.17729e-15 9.16875 -2.34829)
(1.32159e-15 2.72313 -1.43096)
(1.84692e-15 -7.43025 -10.7701)
(-8.66213e-16 -9.93551 -6.21727)
(-2.27414e-15 -9.62602 -4.24693)
(-2.71524e-15 -8.58227 -3.74485)
(-2.94586e-15 -7.27331 -3.29708)
(-3.06435e-15 -5.28866 0.0435398)
(-3.7734e-15 -4.73436 3.9044)
(-4.3633e-15 -4.28394 4.20047)
(-4.23359e-15 -0.418566 3.55201)
(-4.11217e-15 3.66828 3.73331)
(-3.50561e-15 5.51903 6.85727)
(-3.88302e-15 5.61557 12.0652)
(-4.12911e-15 5.59775 12.4684)
(2.55675e-15 -8.29963 11.6523)
(4.84515e-15 10.6606 18.558)
(3.73019e-15 8.79807 -12.9285)
(2.67516e-15 8.26791 -16.5254)
(4.08537e-16 7.18452 5.28431)
(8.22441e-16 3.90734 2.099)
(1.76561e-15 -6.63222 -9.13611)
(-5.98398e-16 -10.4159 -6.77488)
(-2.04558e-15 -9.85492 -5.11495)
(-2.57537e-15 -8.64771 -4.81704)
(-2.88129e-15 -7.53408 -4.75926)
(-3.08137e-15 -5.97918 -3.20293)
(-3.67162e-15 -5.13211 0.697523)
(-4.26908e-15 -4.14577 1.41725)
(-4.11026e-15 -0.346058 0.481511)
(-4.12389e-15 3.56715 0.540796)
(-3.49466e-15 4.783 2.02965)
(-2.97044e-15 4.67226 6.945)
(-3.09069e-15 5.64263 11.7672)
(2.79135e-15 -11.7193 14.0375)
(4.97297e-15 13.3961 23.4526)
(3.13441e-15 12.3372 -14.1328)
(1.73518e-15 6.06991 -9.93564)
(1.01586e-16 5.61086 9.57121)
(7.55637e-16 5.61917 3.03721)
(1.69203e-15 -5.49202 -7.49041)
(-3.49171e-16 -10.6547 -7.21393)
(-1.73405e-15 -10.0288 -5.92694)
(-2.26852e-15 -8.66264 -5.7729)
(-2.6315e-15 -7.60121 -5.99044)
(-2.90586e-15 -6.39687 -5.64982)
(-3.31892e-15 -5.57489 -3.42829)
(-4.10761e-15 -4.13037 -1.91726)
(-4.1539e-15 -0.50949 -1.91348)
(-3.6459e-15 3.51929 -2.48133)
(-3.06284e-15 4.38995 -1.00025)
(-2.68092e-15 3.53756 1.96474)
(-3.22499e-15 4.80075 7.93318)
(2.91207e-15 -16.046 16.4861)
(4.90163e-15 16.4236 29.1045)
(2.28945e-15 15.3797 -12.3635)
(7.1221e-16 3.64227 2.55971)
(7.92832e-17 4.89787 10.356)
(6.80682e-16 7.23235 5.01144)
(1.6407e-15 -4.3995 -5.71339)
(-1.33476e-16 -10.6631 -7.48687)
(-1.40809e-15 -10.149 -6.65937)
(-1.8618e-15 -8.64413 -6.5533)
(-2.2077e-15 -7.56127 -6.95176)
(-2.53705e-15 -6.51131 -7.18087)
(-2.78535e-15 -5.82659 -6.76094)
(-3.56683e-15 -4.31507 -5.82632)
(-3.91877e-15 -0.658758 -5.40609)
(-3.18222e-15 3.33559 -5.46439)
(-2.54073e-15 4.0181 -3.40919)
(-2.12624e-15 2.80379 -0.902055)
(-2.74911e-15 3.53289 2.34773)
(2.94084e-15 -21.3427 18.7805)
(4.74637e-15 19.3575 35.9261)
(1.49153e-15 17.4449 -7.08209)
(1.80515e-17 1.23023 15.4995)
(1.03791e-16 5.40479 9.16385)
(5.37221e-16 8.66516 7.39947)
(1.59247e-15 -3.16303 -3.60002)
(3.82324e-17 -10.4196 -7.56693)
(-1.13428e-15 -10.2141 -7.33874)
(-1.46538e-15 -8.61376 -7.1742)
(-1.71034e-15 -7.47571 -7.61727)
(-2.03771e-15 -6.44938 -8.07327)
(-2.22065e-15 -5.80848 -8.57163)
(-2.74231e-15 -4.37744 -8.86901)
(-3.14299e-15 -0.782382 -8.8178)
(-2.46901e-15 3.04516 -7.79952)
(-1.95588e-15 3.55428 -5.31386)
(-1.75264e-15 2.52126 -2.37149)
(-1.51018e-15 0.870667 -2.67855)
(2.92675e-15 -27.813 20.7365)
(4.75649e-15 21.8593 44.1197)
(1.04874e-15 19.3297 -0.386851)
(-1.73988e-16 0.508832 18.351)
(1.19615e-16 6.48722 6.87496)
(3.39636e-16 9.72019 9.38122)
(1.58195e-15 -1.43559 -0.714098)
(1.73545e-16 -9.85607 -7.38326)
(-9.57968e-16 -10.2239 -8.01988)
(-1.18229e-15 -8.59809 -7.73709)
(-1.2642e-15 -7.38047 -8.04433)
(-1.50886e-15 -6.33021 -8.56418)
(-1.71349e-15 -5.63135 -9.26969)
(-1.9526e-15 -4.25171 -10.379)
(-2.2157e-15 -0.917467 -10.775)
(-1.75057e-15 2.60605 -9.11797)
(-1.43984e-15 3.03094 -6.33384)
(-1.35796e-15 2.10548 -3.34602)
(-1.24244e-15 0.634226 -1.37927)
(2.93106e-15 -35.3887 22.1536)
(5.20156e-15 23.9825 52.792)
(1.01125e-15 22.3182 4.85351)
(-1.64721e-16 0.33587 16.8602)
(1.85705e-16 7.18161 4.0277)
(1.22718e-16 10.044 10.589)
(9.26792e-16 0.0407767 3.74601)
(2.20508e-16 -8.87163 -6.78364)
(-8.803e-16 -10.1386 -8.76221)
(-1.07444e-15 -8.61916 -8.40649)
(-9.67644e-16 -7.30869 -8.38668)
(-1.0469e-15 -6.21231 -8.81173)
(-1.27023e-15 -5.41207 -9.44354)
(-1.36443e-15 -4.04344 -10.7437)
(-1.48535e-15 -1.04732 -11.3482)
(-1.22198e-15 2.13566 -9.48936)
(-1.07448e-15 2.4878 -6.69841)
(-1.09301e-15 1.26213 -3.66372)
(-7.7675e-16 0.703349 1.95492)
(3.00379e-15 -44.3428 22.6712)
(6.22024e-15 25.8619 59.878)
(1.34164e-15 26.3231 9.05314)
(-2.62034e-16 0.840127 15.5577)
(2.75326e-16 7.55297 1.33406)
(-4.35194e-19 9.81572 10.7409)
(2.209e-17 1.8091 5.48764)
(1.86116e-16 -7.37548 -5.84737)
(-8.47753e-16 -9.89567 -9.47469)
(-1.13146e-15 -8.68282 -9.31995)
(-8.77029e-16 -7.29766 -8.85605)
(-7.28088e-16 -6.12623 -8.97348)
(-8.82997e-16 -5.21933 -9.43997)
(-9.54024e-16 -3.85184 -10.5674)
(-1.01543e-15 -1.19962 -11.1523)
(-8.91493e-16 1.64852 -9.33381)
(-8.43283e-16 1.95602 -6.69474)
(-8.93795e-16 0.541454 -4.00766)
(-1.03628e-15 -1.42656 -2.30407)
(3.15587e-15 -53.633 21.5871)
(7.73089e-15 27.4099 62.9356)
(2.05749e-15 30.9231 12.374)
(-7.76472e-16 2.1931 15.785)
(3.18482e-16 7.91662 -0.168603)
(2.84735e-17 9.30454 10.3809)
(9.87566e-17 3.35285 5.65246)
(1.41064e-16 -5.71631 -4.40625)
(-8.3933e-16 -9.4389 -9.86557)
(-1.28741e-15 -8.74986 -10.4773)
(-9.98446e-16 -7.37656 -9.68292)
(-6.11114e-16 -6.10003 -9.26383)
(-5.8134e-16 -5.0656 -9.43674)
(-6.43518e-16 -3.67512 -10.2499)
(-7.11234e-16 -1.30766 -10.684)
(-6.70393e-16 1.23563 -9.00041)
(-6.6301e-16 1.48766 -6.5298)
(-7.3925e-16 0.286028 -4.19208)
(-1.1008e-15 -1.35237 -2.1785)
(3.34161e-15 -64.0118 18.3337)
(9.42878e-15 28.6291 59.7452)
(3.23204e-15 35.4798 13.6604)
(-1.38669e-15 3.82022 16.7872)
(3.12403e-16 8.41397 -0.301131)
(6.98671e-18 8.70668 9.95023)
(5.48804e-17 4.65979 6.12077)
(1.24533e-16 -4.11761 -2.31972)
(-7.8941e-16 -8.69693 -9.61238)
(-1.43386e-15 -8.72435 -11.6249)
(-1.27224e-15 -7.54271 -10.9656)
(-7.26152e-16 -6.1834 -9.92934)
(-4.30941e-16 -5.013 -9.58551)
(-4.03389e-16 -3.61597 -9.98643)
(-4.73786e-16 -1.52056 -10.2013)
(-4.75634e-16 0.708474 -8.69227)
(-4.79888e-16 0.962781 -6.38719)
(-6.11732e-16 -0.596708 -4.22295)
(-1.1411e-15 -2.2135 -1.96143)
(3.47419e-15 -71.5031 12.1053)
(1.09472e-14 29.5127 49.4043)
(4.8367e-15 39.2847 11.7608)
(-1.67403e-15 5.37722 17.1745)
(2.52173e-16 9.04682 0.10236)
(8.36769e-18 8.11716 9.34079)
(1.43254e-17 5.70062 6.44339)
(8.9443e-17 -2.43523 0.690497)
(-7.0108e-16 -7.604 -8.39005)
(-1.48154e-15 -8.47585 -12.2893)
(-1.57045e-15 -7.71762 -12.51)
(-1.03342e-15 -6.37218 -11.1414)
(-4.89739e-16 -5.01082 -10.1105)
(-2.68859e-16 -3.48567 -9.94379)
(-2.73531e-16 -1.50536 -9.85732)
(-2.84565e-16 0.639455 -8.53395)
(-2.85825e-16 1.00189 -6.45519)
(-4.85972e-16 -0.223605 -4.6589)
(-1.21834e-15 -3.06804 -2.72829)
(3.45302e-15 -81.486 3.67553)
(1.2124e-14 30.0145 32.1475)
(6.69011e-15 41.6412 6.55635)
(-1.46309e-15 6.5284 15.8215)
(1.57806e-16 9.64122 0.380877)
(1.18115e-17 7.52557 8.58494)
(-1.67083e-17 6.10679 6.29791)
(-2.33938e-16 -1.12251 4.90256)
(-6.49857e-16 -6.1543 -6.45322)
(-1.40746e-15 -7.9031 -12.1777)
(-1.76426e-15 -7.78591 -13.8525)
(-1.41343e-15 -6.69076 -12.7628)
(-7.50548e-16 -5.30073 -11.1362)
(-2.94869e-16 -3.78897 -10.257)
(-1.49265e-16 -2.0098 -9.75462)
(-1.23735e-16 -0.433697 -8.503)
(-1.06886e-16 -0.148485 -6.5426)
(-3.51676e-16 -1.91415 -5.30541)
(-1.30423e-15 -3.80141 -3.76861)
(3.28222e-15 -79.1076 -7.95525)
(1.30881e-14 30.0115 9.85676)
(8.54551e-15 42.0443 -1.02709)
(-8.14215e-16 6.93198 12.6699)
(7.11371e-17 10.1281 0.379286)
(9.4719e-18 7.03289 7.72341)
(6.59303e-18 6.21037 5.44186)
(-3.15534e-16 0.271821 6.95184)
(-6.07023e-16 -4.33184 -4.15345)
(-1.28693e-15 -6.96974 -10.977)
(-1.82848e-15 -7.58869 -14.3703)
(-1.7443e-15 -6.86459 -14.3419)
(-1.13115e-15 -5.36065 -12.6553)
(-4.98807e-16 -3.47895 -11.1172)
(-1.57743e-16 -1.48723 -10.0645)
(-4.02627e-17 0.589155 -8.65776)
(3.51785e-17 1.08372 -6.95986)
(-2.29419e-16 0.220247 -5.98485)
(-1.36822e-15 -4.65642 -4.0056)
(2.64924e-15 -94.9746 -16.7558)
(1.42038e-14 31.0422 -16.6314)
(1.01046e-14 40.8503 -9.44778)
(8.44571e-17 6.45583 8.78434)
(1.99149e-17 10.5483 0.199023)
(5.51839e-18 6.78819 6.74266)
(1.12737e-17 6.27685 4.47801)
(-1.67821e-16 1.19123 6.64887)
(-5.71055e-16 -2.65112 -1.75041)
(-1.1709e-15 -5.87226 -8.7413)
(-1.80483e-15 -7.16801 -13.6281)
(-1.97434e-15 -7.18344 -15.1602)
(-1.53175e-15 -6.26455 -14.1042)
(-8.47075e-16 -4.90994 -12.3432)
(-3.42793e-16 -3.29138 -10.863)
(-1.03176e-16 -2.39497 -9.44734)
(6.37186e-17 -1.50616 -7.61216)
(-1.69774e-16 -4.4617 -7.20096)
(-1.4486e-15 -4.56528 -4.71343)
(3.35226e-15 -56.9467 -34.1006)
(1.64963e-14 34.3719 -40.3262)
(1.09351e-14 37.3218 -16.5359)
(8.18681e-16 5.66945 5.05017)
(2.88076e-18 9.9949 0.0246141)
(4.09153e-18 6.28924 5.62958)
(5.76379e-18 6.04275 3.56906)
(-1.32153e-16 1.71617 6.1452)
(-5.06021e-16 -1.25239 0.0822216)
(-1.02632e-15 -4.48123 -6.09768)
(-1.71112e-15 -6.15858 -11.8134)
(-2.09116e-15 -6.39986 -15.047)
(-1.85943e-15 -5.17741 -15.2682)
(-1.21034e-15 -2.85873 -13.6885)
(-5.83785e-16 -0.564392 -11.8036)
(-1.98034e-16 2.19808 -9.7098)
(8.54533e-17 1.91868 -8.5786)
(-1.17324e-16 3.50309 -6.79634)
(-1.45117e-15 -8.61962 -3.34175)
(-3.07926e-15 -131.059 -17.851)
(2.0206e-14 14.007 -66.5575)
(1.04586e-14 29.8303 -16.8723)
(4.43709e-16 3.48317 2.8683)
(2.55178e-18 8.66325 -0.0990688)
(3.08993e-18 5.34424 4.60648)
(3.82155e-18 5.30957 2.7831)
(-1.3917e-16 1.70619 5.65069)
(-5.20282e-16 -0.498877 1.37)
(-8.71201e-16 -3.82869 -3.454)
(-1.57267e-15 -5.80468 -9.04952)
(-2.16159e-15 -7.46449 -13.452)
(-2.22307e-15 -8.23919 -15.2932)
(-1.80491e-15 -8.28535 -15.2099)
(-1.25913e-15 -6.98034 -14.1666)
(-8.72634e-16 -7.25025 -13.4553)
(-5.20066e-16 -3.89765 -11.3745)
(-6.1187e-16 -12.9051 -13.8232)
(-1.60017e-15 -0.722012 -6.83624)
(2.51708e-14 70.466 -108.854)
(2.39307e-14 30.4338 -75.9626)
(7.34326e-15 21.2111 0.153639)
(-5.55054e-16 2.72248 3.426)
(2.66134e-18 11.7755 -0.240635)
(1.32008e-18 7.10957 3.60226)
(5.7007e-18 6.89666 2.05172)
(-1.13218e-16 2.30429 5.05813)
(-6.16253e-16 1.08614 3.08345)
(-5.11245e-16 -1.33276 -2.18593)
(-1.16354e-15 -2.90975 -6.97161)
(-1.72576e-15 -2.59411 -11.5978)
(-1.73797e-15 -0.800729 -13.7593)
(-1.08411e-15 2.77676 -12.1916)
(-2.79915e-16 4.88055 -9.51815)
(5.10129e-16 10.2163 -4.35036)
(1.0729e-15 4.20394 -3.84248)
(8.60319e-16 20.4507 12.7747)
(-1.3294e-15 -26.3988 1.24994)
(-1.44793e-13 -321.434 316.903)
(1.10321e-14 74.8305 -52.9416)
(3.17568e-15 26.8321 14.183)
(-1.27444e-16 6.89592 4.95765)
(-2.36845e-19 13.2635 -0.155653)
(-5.61395e-20 8.24056 1.43619)
(3.76972e-18 7.77389 0.768195)
(-9.05572e-18 2.82734 2.24633)
(-5.7333e-16 0.448028 3.17669)
(-1.88023e-15 -4.55572 4.39605)
(-2.26383e-15 -7.40272 -2.98291)
(-3.77044e-15 -12.2316 -11.6306)
(-5.0183e-15 -16.2987 -20.4837)
(-5.94114e-15 -19.5068 -30.0648)
(-5.55826e-15 -17.5012 -32.0489)
(-6.22817e-15 -21.4067 -42.9167)
(-3.8592e-15 -8.08591 -26.3564)
(-7.89403e-15 -44.9245 -68.7651)
(-1.73208e-15 42.7667 18.6708)
(-3.20159e-16 5.21931 9.59921)
(-9.80174e-15 9.76216 16.877)
(-7.64264e-15 9.77632 16.974)
(-7.43005e-15 9.51818 16.3105)
(-7.48183e-15 9.48338 16.1891)
(-1.11753e-14 9.53825 16.1524)
(-7.94069e-15 9.56033 16.1236)
(-7.52813e-15 9.59695 16.0895)
(-7.40166e-15 9.60858 16.059)
(-7.57194e-15 9.64462 16.0479)
(-6.99652e-15 9.63525 16.0117)
(-7.3018e-15 9.56978 15.8196)
(-7.59783e-15 9.63353 15.9557)
(-6.93454e-15 9.6509 16.0025)
(-7.26627e-15 9.64524 16.0132)
(-7.19238e-15 9.60978 16.0422)
(-7.34823e-15 9.60469 16.0287)
(-7.06752e-15 9.71125 16.4049)
(-6.47957e-15 10.2245 17.0834)
(-1.03864e-14 6.35417 11.0048)
(2.2629e-16 4.86339 8.24383)
(-6.58709e-15 9.26567 15.8717)
(-5.03801e-15 9.10379 15.6395)
(-5.51306e-15 8.78924 15.0879)
(-5.44373e-15 8.76549 15.081)
(-9.24851e-15 8.79582 15.1053)
(-5.5959e-15 8.79661 15.1304)
(-5.73659e-15 8.81505 15.1451)
(-5.59992e-15 8.82352 15.1698)
(-5.79197e-15 8.83669 15.1861)
(-5.28038e-15 8.85242 15.2142)
(-5.60825e-15 8.88983 15.2762)
(-5.70414e-15 8.89957 15.2657)
(-4.99685e-15 8.9025 15.2886)
(-5.34805e-15 8.92651 15.3112)
(-5.58128e-15 8.92297 15.3428)
(-5.33006e-15 8.95165 15.3632)
(-5.17537e-15 9.13435 15.7424)
(-4.89712e-15 9.5273 16.3756)
(-7.87931e-15 5.67015 9.84243)
(-2.67923e-17 5.50647 9.59238)
(-1.52895e-15 9.6016 16.4353)
(-1.19141e-15 9.29017 16.0267)
(-1.56764e-15 9.04632 15.5482)
(-1.37162e-15 9.01211 15.5369)
(-5.12289e-15 9.02988 15.536)
(-2.64967e-15 9.01718 15.5409)
(-2.69269e-15 9.02379 15.5359)
(-3.00587e-15 9.0164 15.5384)
(-2.83202e-15 9.01995 15.5381)
(-2.75554e-15 9.01666 15.5394)
(-2.95621e-15 9.01007 15.5332)
(-2.73433e-15 9.01298 15.5433)
(-2.7199e-15 9.01025 15.5528)
(-2.87459e-15 9.01706 15.5538)
(-2.95173e-15 9.00141 15.5633)
(-2.6327e-15 9.01885 15.5602)
(-2.50072e-15 9.18829 15.928)
(-2.70663e-15 9.59059 16.5406)
(-4.22395e-15 5.79071 10.1466)
(-5.62061e-19 5.57468 9.60627)
(6.41673e-16 9.47096 16.2563)
(4.57846e-16 9.12183 15.7338)
(5.14234e-16 8.90101 15.3139)
(5.12101e-16 8.87999 15.3217)
(-2.09883e-15 8.89898 15.3299)
(-1.75088e-15 8.88978 15.3431)
(-1.87302e-15 8.89826 15.3464)
(-2.0688e-15 8.89367 15.3569)
(-1.91264e-15 8.8983 15.3625)
(-1.80829e-15 8.89719 15.3717)
(-2.16014e-15 8.90029 15.3819)
(-1.94728e-15 8.90232 15.3874)
(-1.69237e-15 8.89929 15.3982)
(-1.93712e-15 8.9069 15.4029)
(-2.17973e-15 8.89485 15.4138)
(-2.07516e-15 8.91102 15.415)
(-1.57575e-15 9.08755 15.7771)
(-1.98573e-15 9.47982 16.4086)
(-2.88387e-15 5.80749 10.1466)
(1.61007e-18 5.84807 10.122)
(-1.64309e-16 9.52602 16.3465)
(-1.17872e-16 9.11468 15.7372)
(-1.21606e-16 8.92483 15.3626)
(-1.31281e-16 8.90338 15.3725)
(8.05467e-16 8.91856 15.3752)
(6.15669e-16 8.9069 15.3844)
(6.3394e-16 8.91254 15.3843)
(6.75624e-16 8.90556 15.3912)
(6.68834e-16 8.90781 15.3937)
(6.38731e-16 8.90416 15.3992)
(6.73849e-16 8.90332 15.4033)
(6.56986e-16 8.90307 15.4081)
(6.38482e-16 8.89939 15.4157)
(6.78585e-16 8.90386 15.4179)
(6.79276e-16 8.89145 15.4251)
(6.18184e-16 8.90407 15.4218)
(5.90806e-16 9.06352 15.7541)
(6.32074e-16 9.47644 16.4211)
(9.68468e-16 5.97048 10.4505)
(-6.28165e-19 6.01973 10.3977)
(3.94638e-17 9.49001 16.3001)
(3.00013e-17 9.0489 15.6247)
(3.03032e-17 8.88203 15.2958)
(3.32035e-17 8.8656 15.3104)
(-2.08219e-16 8.87993 15.3141)
(-1.53484e-16 8.86979 15.3242)
(-1.65063e-16 8.87562 15.3256)
(-1.69651e-16 8.86965 15.3335)
(-1.61636e-16 8.87229 15.337)
(-1.5434e-16 8.86914 15.3436)
(-1.6389e-16 8.86948 15.349)
(-1.57969e-16 8.86907 15.3543)
(-1.58153e-16 8.86634 15.3619)
(-1.6019e-16 8.87015 15.3653)
(-1.55577e-16 8.85993 15.3729)
(-1.50937e-16 8.86966 15.3688)
(-1.57229e-16 9.0128 15.6667)
(-1.43962e-16 9.44581 16.3787)
(-2.2504e-16 6.12921 10.7198)
(1.82353e-19 6.22316 10.7529)
(-8.89294e-18 9.4832 16.2915)
(-7.3118e-18 9.01375 15.5673)
(-7.07697e-18 8.86991 15.2785)
(-7.72791e-18 8.85519 15.2947)
(4.91063e-17 8.86778 15.2969)
(3.68523e-17 8.85776 15.3058)
(4.06626e-17 8.8627 15.3068)
(4.20186e-17 8.85668 15.3137)
(3.81395e-17 8.85876 15.3165)
(3.66295e-17 8.85528 15.3224)
(4.01246e-17 8.85536 15.3268)
(3.76307e-17 8.85425 15.3319)
(3.66712e-17 8.85196 15.3383)
(3.68624e-17 8.85454 15.3416)
(3.55537e-17 8.84579 15.3485)
(3.7866e-17 8.8528 15.343)
(3.87493e-17 8.9776 15.6043)
(3.41917e-17 9.42763 16.3499)
(5.09443e-17 6.30944 11.0332)
(-4.72489e-20 6.40926 11.067)
(1.92743e-18 9.45598 16.2516)
(1.70824e-18 8.97014 15.4925)
(1.55366e-18 8.84714 15.2428)
(1.7075e-18 8.83486 15.2604)
(-1.07406e-17 8.84626 15.2624)
(-8.41881e-18 8.83713 15.271)
(-9.24517e-18 8.84172 15.2724)
(-9.75009e-18 8.83627 15.2792)
(-8.79441e-18 8.83828 15.2822)
(-8.46213e-18 8.83501 15.2882)
(-9.2994e-18 8.83541 15.2926)
(-8.6587e-18 8.83405 15.2978)
(-8.26816e-18 8.83255 15.3039)
(-8.41594e-18 8.8343 15.3078)
(-7.98703e-18 8.82739 15.3145)
(-8.87113e-18 8.83216 15.309)
(-8.87496e-18 8.93966 15.5348)
(-8.12472e-18 9.40009 16.304)
(-1.12005e-17 6.48806 11.3397)
(1.17555e-20 6.59925 11.3919)
(-4.13092e-19 9.42913 16.21)
(-3.84004e-19 8.93368 15.4304)
(-3.31946e-19 8.83045 15.2169)
(-3.72565e-19 8.81969 15.2348)
(2.32193e-18 8.82982 15.2363)
(1.87892e-18 8.82133 15.2442)
(2.01675e-18 8.82537 15.2456)
(2.14496e-18 8.82031 15.252)
(1.98343e-18 8.82205 15.255)
(1.89783e-18 8.81887 15.2607)
(2.05578e-18 8.81938 15.2647)
(1.92831e-18 8.81768 15.27)
(1.83793e-18 8.8168 15.2754)
(1.89804e-18 8.81763 15.2797)
(1.79292e-18 8.81237 15.2859)
(1.97311e-18 8.81517 15.2808)
(1.94194e-18 8.90616 15.4726)
(1.8809e-18 9.36997 16.2523)
(2.4071e-18 6.66905 11.6515)
(-2.88846e-21 6.78537 11.7083)
(8.92e-20 9.39416 16.1551)
(8.40152e-20 8.89767 15.3685)
(7.13941e-20 8.81267 15.1891)
(8.22954e-20 8.80329 15.2068)
(-5.14611e-19 8.81228 15.208)
(-4.16723e-19 8.80458 15.2155)
(-4.34087e-19 8.80815 15.2172)
(-4.57111e-19 8.8036 15.2232)
(-4.38667e-19 8.80514 15.2262)
(-4.18839e-19 8.80218 15.2318)
(-4.43969e-19 8.80282 15.2357)
(-4.2574e-19 8.80092 15.2411)
(-4.07085e-19 8.80069 15.246)
(-4.21133e-19 8.8007 15.2508)
(-4.03867e-19 8.79709 15.2567)
(-4.2664e-19 8.79821 15.2524)
(-4.15526e-19 8.87408 15.4125)
(-4.23753e-19 9.33377 16.1901)
(-5.12278e-19 6.84885 11.9604)
(7.05843e-22 6.97097 12.0245)
(-1.952e-20 9.35462 16.0919)
(-1.81946e-20 8.86485 15.3122)
(-1.5703e-20 8.79659 15.1641)
(-1.84692e-20 8.7882 15.181)
(1.16357e-19 8.79612 15.182)
(9.18429e-20 8.78914 15.189)
(9.36896e-20 8.79222 15.1908)
(9.62053e-20 8.78817 15.1965)
(9.60005e-20 8.78944 15.1996)
(9.24594e-20 8.78671 15.2049)
(9.57465e-20 8.7874 15.2086)
(9.50146e-20 8.78534 15.2141)
(9.08497e-20 8.78567 15.2185)
(9.27866e-20 8.78488 15.2237)
(9.12124e-20 8.78283 15.229)
(9.1054e-20 8.78247 15.226)
(8.82971e-20 8.84466 15.3569)
(9.39693e-20 9.29263 16.1192)
(1.08989e-19 7.0281 12.2686)
(-1.71723e-22 7.15489 12.3375)
(4.32246e-21 9.30911 16.0185)
(3.96506e-21 8.83413 15.2594)
(3.52178e-21 8.78097 15.1399)
(4.1781e-21 8.77337 15.1556)
(-2.62985e-20 8.78029 15.1566)
(-2.01316e-20 8.77406 15.1631)
(-2.04952e-20 8.77665 15.1651)
(-2.0372e-20 8.77312 15.1705)
(-2.10115e-20 8.77411 15.1736)
(-2.05798e-20 8.77169 15.1787)
(-2.08338e-20 8.77237 15.1823)
(-2.14711e-20 8.77024 15.1877)
(-2.0491e-20 8.77105 15.1918)
(-2.05674e-20 8.76956 15.1974)
(-2.06117e-20 8.76898 15.2021)
(-1.94658e-20 8.7673 15.2007)
(-1.88971e-20 8.81741 15.305)
(-2.08244e-20 9.24601 16.039)
(-2.32503e-20 7.20629 12.5747)
(4.1681e-23 7.33768 12.6486)
(-9.66335e-22 9.25825 15.9358)
(-8.78057e-22 8.80598 15.2109)
(-7.98837e-22 8.76623 15.1171)
(-9.47271e-22 8.75921 15.1314)
(5.87292e-21 8.76522 15.1324)
(4.42922e-21 8.7597 15.1384)
(4.56639e-21 8.76181 15.1406)
(4.41316e-21 8.75882 15.1456)
(4.63188e-21 8.75949 15.1487)
(4.612e-21 8.75741 15.1536)
(4.59044e-21 8.75801 15.1572)
(4.87382e-21 8.7559 15.1625)
(4.6541e-21 8.75709 15.1663)
(4.61604e-21 8.75498 15.1722)
(4.65689e-21 8.75575 15.1763)
(4.24011e-21 8.75289 15.1767)
(4.13049e-21 8.79259 15.2571)
(4.66763e-21 9.1941 15.9497)
(4.98536e-21 7.38357 12.8791)
(-1.01205e-23 7.51924 12.9575)
(2.17996e-22 9.20179 15.8434)
(1.97928e-22 8.7802 15.1666)
(1.82656e-22 8.75211 15.0953)
(2.15632e-22 8.74553 15.1081)
(-1.29895e-21 8.75073 15.1091)
(-9.90172e-22 8.7459 15.1146)
(-1.03385e-21 8.74754 15.117)
(-9.86357e-22 8.74508 15.1216)
(-1.03305e-21 8.74542 15.1249)
(-1.03622e-21 8.74373 15.1295)
(-1.02901e-21 8.74418 15.133)
(-1.10603e-21 8.7422 15.1383)
(-1.06178e-21 8.74363 15.1417)
(-1.04805e-21 8.74105 15.1479)
(-1.05388e-21 8.74302 15.1514)
(-9.52245e-22 8.7391 15.1536)
(-9.3002e-22 8.7701 15.2133)
(-1.06508e-21 9.13679 15.8513)
(-1.08069e-21 7.55987 13.1815)
(2.4613e-24 7.69982 13.2645)
(-4.9632e-23 9.13983 15.7414)
(-4.53139e-23 8.75687 15.1265)
(-4.21763e-23 8.73869 15.0745)
(-4.95807e-23 8.73242 15.0858)
(2.87511e-22 8.73688 15.0868)
(2.26681e-22 8.73273 15.0919)
(2.36559e-22 8.73389 15.0945)
(2.2698e-22 8.73196 15.0987)
(2.34117e-22 8.73197 15.1021)
(2.33264e-22 8.73068 15.1064)
(2.35955e-22 8.73091 15.1099)
(2.51734e-22 8.72918 15.115)
(2.43705e-22 8.73067 15.1182)
(2.40032e-22 8.72782 15.1246)
(2.39743e-22 8.73078 15.1275)
(2.20431e-22 8.7259 15.1316)
(2.15741e-22 8.74997 15.1733)
(2.47942e-22 9.07409 15.7438)
(2.38283e-22 7.73521 13.4818)
(-5.99548e-25 7.87971 13.5703)
(1.13971e-23 9.07244 15.6298)
(1.05197e-23 8.73608 15.0909)
(9.85705e-24 8.72612 15.055)
(1.15654e-23 8.72008 15.0647)
(-6.43184e-23 8.72382 15.0658)
(-5.31414e-23 8.72039 15.0704)
(-5.45119e-23 8.72103 15.0731)
(-5.33351e-23 8.71959 15.077)
(-5.40628e-23 8.7193 15.0804)
(-5.28488e-23 8.71835 15.0844)
(-5.53599e-23 8.71832 15.0879)
(-5.79008e-23 8.71694 15.0927)
(-5.64598e-23 8.71824 15.0959)
(-5.5382e-23 8.71539 15.1022)
(-5.50283e-23 8.71902 15.1046)
(-5.20861e-23 8.71333 15.1105)
(-5.12417e-23 8.73218 15.1373)
(-5.87903e-23 9.00603 15.6274)
(-5.35096e-23 7.90961 13.7798)
(1.46352e-25 8.05934 13.8752)
(-2.6367e-24 8.99942 15.5081)
(-2.47656e-24 8.71776 15.0597)
(-2.3301e-24 8.71451 15.0366)
(-2.73633e-24 8.70873 15.0447)
(1.46048e-23 8.71169 15.0461)
(1.26804e-23 8.70911 15.0501)
(1.26527e-23 8.70924 15.053)
(1.26876e-23 8.70825 15.0564)
(1.26962e-23 8.70776 15.0598)
(1.21349e-23 8.70707 15.0635)
(1.31934e-23 8.70681 15.0671)
(1.35312e-23 8.70582 15.0715)
(1.32262e-23 8.70668 15.0749)
(1.28793e-23 8.70422 15.0808)
(1.27803e-23 8.70793 15.083)
(1.24265e-23 8.7017 15.0903)
(1.23503e-23 8.71692 15.1052)
(1.41232e-23 8.93302 15.5027)
(1.21837e-23 8.08312 14.0752)
(-3.5827e-26 8.23964 14.1804)
(6.13694e-25 8.92056 15.3748)
(5.9048e-25 8.70162 15.0324)
(5.54712e-25 8.70359 15.0189)
(6.53912e-25 8.69847 15.0253)
(-3.3595e-24 8.70031 15.0269)
(-3.05269e-24 8.69869 15.0302)
(-2.96207e-24 8.69836 15.033)
(-3.03476e-24 8.69767 15.0361)
(-3.01079e-24 8.69709 15.0394)
(-2.83508e-24 8.69654 15.0428)
(-3.15807e-24 8.69613 15.0463)
(-3.20683e-24 8.69553 15.0503)
(-3.1279e-24 8.69582 15.054)
(-3.0187e-24 8.69422 15.0593)
(-3.00395e-24 8.69721 15.0619)
(-2.97072e-24 8.69125 15.07)
(-2.99134e-24 8.70421 15.0762)
(-3.40966e-24 8.85553 15.3705)
(-2.79558e-24 8.25511 14.3661)
(8.90026e-27 8.42318 14.4926)
(-1.45119e-25 8.83806 15.2311)
(-1.43625e-25 8.69067 15.012)
(-1.33704e-25 8.6952 15.0051)
(-1.58702e-25 8.6918 15.0089)
(7.88247e-25 8.69211 15.0105)
(7.43443e-25 8.69113 15.0126)
(7.07125e-25 8.69034 15.0148)
(7.34603e-25 8.6895 15.0171)
(7.22523e-25 8.68861 15.0197)
(6.80278e-25 8.68773 15.0224)
(7.60343e-25 8.68687 15.0254)
(7.73483e-25 8.68603 15.0287)
(7.52069e-25 8.68541 15.0321)
(7.19644e-25 8.68431 15.0364)
(7.20775e-25 8.68529 15.0397)
(7.16341e-25 8.68101 15.0469)
(7.29596e-25 8.69105 15.0483)
(8.29138e-25 8.77262 15.2324)
(6.49212e-25 8.42323 14.6449)
(-1.87938e-27 8.61058 14.8239)
(2.89724e-26 8.7527 15.0801)
(2.94744e-26 8.69281 15.0032)
(2.70475e-26 8.695 15.0014)
(3.2612e-26 8.69441 15.0021)
(-1.55943e-25 8.69407 15.0026)
(-1.51832e-25 8.69366 15.0031)
(-1.4334e-25 8.69304 15.0038)
(-1.49421e-25 8.69232 15.0046)
(-1.45485e-25 8.69143 15.0056)
(-1.38863e-25 8.69038 15.0067)
(-1.52727e-25 8.68914 15.008)
(-1.5621e-25 8.68771 15.0095)
(-1.52497e-25 8.68604 15.0113)
(-1.45266e-25 8.68416 15.0133)
(-1.46411e-25 8.68207 15.0156)
(-1.45095e-25 8.67891 15.0189)
(-1.48271e-25 8.67938 15.02)
(-1.68571e-25 8.69418 15.0844)
(-1.2722e-25 8.59339 14.8933)
(3.82965e-15 -0.464931 -3.79814)
(4.78894e-15 -0.34923 -4.52186)
(2.29081e-15 0.0355212 -3.36816)
(1.30818e-15 0.0059702 -2.75696)
(2.69931e-16 0.113341 -1.91542)
(3.50545e-16 -0.0895041 2.11987)
(1.65617e-15 -0.789587 4.45211)
(2.49396e-15 -1.02379 4.01402)
(3.14768e-15 -1.16574 3.92563)
(3.54055e-15 -2.01324 5.91893)
(1.62286e-15 -2.55495 5.19662)
(1.7869e-15 -2.65272 5.11194)
(1.52598e-15 -3.97957 7.54299)
(4.59471e-16 -4.127 6.2346)
(-1.87251e-16 -4.71182 6.76513)
(-7.6139e-16 -4.76246 7.31812)
(-1.97834e-15 -6.84483 11.6701)
(-2.06882e-15 -6.63169 9.65011)
(-2.70237e-15 -7.21372 10.74)
(-3.57683e-15 -10.1432 15.3456)
(-1.83995e-15 -8.57786 12.6325)
(-3.39129e-15 -8.9532 12.8717)
(-3.74055e-15 -8.90067 12.5124)
(-3.29838e-15 -9.06375 12.7234)
(-1.94318e-15 -9.10946 12.9879)
(-5.29122e-16 -9.203 13.1758)
(4.69475e-16 -9.2196 13.1715)
(1.07396e-15 -9.26088 13.0266)
(1.45406e-15 -8.69088 11.5572)
(2.03786e-15 -8.62793 11.8294)
(2.15809e-15 -8.49908 11.9086)
(2.11039e-15 -8.4319 12.1464)
(2.06019e-15 -8.30752 12.4002)
(1.90257e-15 -8.1862 12.6459)
(1.7855e-15 -8.03808 12.8732)
(1.48808e-15 -7.83557 13.0501)
(1.41098e-15 -7.53866 12.958)
(1.27497e-15 -7.26788 11.9457)
(1.17814e-15 -2.72204 -0.735626)
(9.14193e-16 -5.61509 2.85861)
(7.54138e-16 -3.52933 -1.06363)
(1.10681e-15 -7.16032 1.52377)
(9.08006e-16 -5.72853 -0.116157)
(6.71906e-16 -5.31995 -0.278081)
(9.5718e-16 -6.86561 -0.690393)
(6.15609e-16 -4.7843 -0.996607)
(1.01487e-15 -5.95535 -1.74963)
(7.66189e-16 -4.99101 -2.4116)
(5.62694e-16 -3.95228 -2.19758)
(8.44671e-16 -4.78518 -3.33159)
(6.47123e-16 -2.66726 -2.63344)
(7.99474e-16 -3.17982 -4.09748)
(3.832e-16 -1.73114 -3.42412)
(1.94547e-16 -0.598934 -2.3053)
(3.42e-16 -0.861979 -3.09451)
(2.82309e-17 0.366603 -0.497915)
(-1.00479e-16 0.768297 -0.288487)
(-2.98707e-16 0.848996 1.71267)
(-2.98616e-16 0.461248 1.47575)
(-3.61776e-15 0.783498 3.17705)
(-4.21305e-16 -0.0428254 0.233009)
(-1.04726e-15 -0.123448 1.62034)
(-1.37985e-15 -0.147734 3.44417)
(-1.5604e-15 0.235901 2.26597)
(-1.51651e-15 0.224761 -0.510107)
(-1.5363e-15 0.169195 -2.2782)
(-1.56534e-15 0.0523764 -3.5718)
(-1.50666e-15 0.0883398 -3.86909)
(-1.3849e-15 -0.100427 -4.94986)
(-6.01678e-16 -0.408638 -2.3759)
(2.70146e-18 0.0573213 2.07419)
(-1.53041e-16 -0.0864011 1.62825)
(-3.07356e-16 -0.0538875 2.86224)
(-4.00232e-16 0.366984 0.813829)
(-2.48815e-16 0.540365 -3.78356)
(6.76943e-17 0.576348 -9.58461)
(2.86008e-16 -0.153946 -14.4035)
(2.49148e-16 -0.959122 -9.69108)
(-9.56405e-17 -0.312832 2.86382)
(-1.17222e-15 -0.410399 1.28807)
(-1.86085e-15 -0.349335 2.9945)
(-1.73644e-15 -0.214751 3.79838)
(-1.54254e-15 0.756971 1.79056)
(-1.53699e-15 0.655727 -0.677862)
(-1.51462e-15 0.502136 -2.54202)
(-1.54655e-15 0.208459 -3.74996)
(-1.62359e-15 0.222999 -4.29504)
(-1.69062e-15 -0.113203 -5.00972)
(-1.12918e-15 -1.19966 -5.04215)
(-2.87304e-16 -0.561198 0.888282)
(-4.53515e-16 -0.196071 3.23862)
(-7.99684e-16 0.0507889 3.30036)
(-8.30281e-16 1.06808 1.37903)
(-3.9268e-16 1.69516 -3.20055)
(3.82567e-16 1.66753 -9.41287)
(8.08399e-16 0.0497923 -13.1905)
(8.0875e-16 -2.40456 -14.6092)
(-5.14768e-17 -2.06628 -1.41729)
(-1.49748e-15 -0.870235 1.65332)