/*--------------------------------*- C++ -*----------------------------------*\
| =========                 |                                                 |
| \\      /  F ield         | OpenFOAM: The Open Source CFD Toolbox           |
|  \\    /   O peration     | Version:  4.1                                   |
|   \\  /    A nd           | Web:      www.OpenFOAM.org                      |
|    \\/     M anipulation  |                                                 |
\*---------------------------------------------------------------------------*/
FoamFile
{
    version     2.0;
    format      ascii;
    class       surfaceScalarField;
    location    "30";
    object      phi;
}
// * * * * * * * * * * * * * * * * * * * * * * * * * * * * * * * * * * * * * //

dimensions      [0 3 -1 0 0 0 0];

internalField   nonuniform List<scalar> 
2360
(
3427.28
16213.5
-12786.2
16213.5
16213.5
28578
-12364.5
28578
28578
28578
44806.8
-16228.8
44806.8
44806.8
66223.7
-21416.9
66223.7
66223.7
94469.6
-28245.9
94469.6
94469.6
132119
-37649.5
132119
132119
143468
157609
171570
184791
197140
208615
184288
34979.4
194133
202946
210611
217105
222587
227403
232018
237090
243376
251330
260897
270944
279139
186168
92971
186168
186168
186168
77631
108537
77631
77631
77631
22468.9
55162.1
22469
22469
-10920.1
33389.1
-10920.1
-10920.1
-10920.1
-116370
105449
-116370
-116370
-116370
-259133
142764
-254019
-247991
-242753
-238538
-234699
-230501
-225492
-219460
-212345
-204166
-194960
-184759
-173615
-190717
29155.2
-178097
-164401
-149570
-134080
-118815
-106289
-106289
-106289
-63478.4
-42810.7
-63478.4
-63478.4
-33091.2
-30387.2
-33091.2
-33091.2
-6128.49
-26962.7
-6128.48
-6128.47
18290.9
-24419.3
18290.9
18290.9
18290.9
42443.7
-24152.8
42443.7
42443.7
68921.5
-26477.9
-14912.3
64550.3
-14890.5
107677
-13752.7
107335
-12406.9
114475
-11416.9
102364
-9395.09
83317.6
-4232.08
-11784.3
-6430.36
-89728.1
-16770.7
-105254
-26537.5
-118585
-29528.1
-139403
-17679.6
-105603
3475.17
23400.4
17448.2
97822.4
26337.3
120626
30047.1
112762
30369.9
81587.5
30463.2
45494.1
-957.849
-15185.5
65480.3
-15240.4
107732
-14244.3
106339
-13136.8
113367
-12548.5
101776
-10025.6
80794.7
-5938.23
-15871.7
-14206.6
-81459.8
-29371.7
-90089.1
-43407.8
-104549
-50356.6
-132454
-36615.2
-119344
-3784.19
-9430.67
15022.2
79016
24154.8
111494
28797.4
108119
30283.1
80101.8
29141.3
46635.9
4030.67
-15498.3
66495.2
-15714.8
107948
-14863.8
105488
-14154.7
112658
-14166.8
101788
-12387.1
79015.1
-11334
-16924.8
-21434.7
-71359.1
-38112.1
-73411.6
-55149.7
-87511.1
-66336.9
-121267
-56589.7
-129091
-16863.4
-49157
10274.9
51877.7
19539.2
102229
25783.3
101875
29130.5
76754.6
28419.3
47347.1
8030.54
-15798.4
67583
-16183
108333
-15561.7
104867
-15333.5
112430
-16057
102512
-15339.8
78297.8
-17379.5
-14885.2
-29676
-59062.6
-49107.9
-53979.7
-68783.4
-67835.5
-84060
-105991
-78666.7
-134485
-37679.9
-90143.8
-603.647
14801.5
12337.8
89288
19924.5
94288.2
25921
70758.1
27927.3
45340.8
8995.18
-15783.7
68947.6
-16643.6
109193
-16324.1
104547
-16610.2
112716
-18107.5
104009
-18763.8
78954.1
-24476.9
-9172.09
-40180.6
-43358.9
-61923.1
-32237.2
-81140
-48618.6
-98373.8
-88756.8
-100334
-132524
-69590.3
-120888
-23588
-31200.7
1265.02
64434.9
11018.3
84535
21276.5
60499.9
27275.6
39341.7
5883.52
-15540
70911.3
-17175.7
110828
-17098.8
104470
-17911.6
113529
-20281.7
106379
-22859.4
81531.8
-33523.8
1492.35
-53173.4
-23709.3
-76134.3
-9276.23
-93166.2
-31586.7
-108819
-73104.1
-115654
-125689
-96393.4
-140148
-54013
-73581.2
-19016.3
29438.3
-1108.4
66627.1
13139.1
46252.3
30153.1
22327.7
-6774.07
-15778.3
73004.3
-17783.4
112833
-17882.7
104570
-19113.9
114760
-22372.9
109638
-28023.5
87182.4
-46768.2
20237
-70920.3
442.768
-93406.8
13210.2
-109140
-15853.3
-119351
-62893.7
-122650
-122390
-112810
-149988
-84582.1
-101809
-47744.6
-7399.25
-19087.8
37970.3
8019.03
19145.5
23245.9
7100.86
45627
-16339.8
73793.1
-18008.4
114502
-18699.9
105261
-20065.2
116125
-24394.9
113968
-35542.7
98330.2
-66297.8
50992.2
-98601.9
32746.8
-118070
32678.1
-121425
-12498.2
-115600
-68718.2
-113835
-124155
-116176
-147647
-107311
-110674
-87380.4
-27330.3
-80582.8
31172.7
-101465
40028
-130323
35958.7
58067.5
-15807.9
72264.6
-17278.8
115973
-19501.6
107484
-20619.4
117243
-25415.8
118764
-37415.8
110330
-67190.3
80766.6
-97045.5
62602
-109173
44806
-102008
-19663.3
-92572.6
-78153.8
-93335.5
-123392
-106815
-134167
-118107
-99382.2
-118161
-27275.7
-121263
34274.2
-134108
52873.3
-136549
38399.9
26967.6
-13915.2
68929.4
-15908.6
117966
-20189.2
111765
-20957.2
118011
-25530.9
123338
-35757.2
120556
-60032.6
105042
-85192
87761.4
-93611.2
53225.2
-83093.9
-30180.6
-72415.3
-88832.4
-71891.2
-123916
-89816.5
-116242
-113332
-75867
-122324
-18283.8
-121479
33429.2
-115353
46747.5
-91051.4
14098.5
-30694.7
-12934.5
65407
-15283.9
120316
-20646.1
117127
-21368.2
118733
-25166.8
127137
-32914.4
128304
-51094.6
123222
-72021.7
108688
-80293.3
61496.8
-70346.3
-40127.7
-58975.9
-100203
-55844.9
-127047
-72100.3
-99986.7
-100945
-47022.7
-116772
-2456.1
-117603
34259.9
-113506
42650.7
-99333
-74.665
-74865.7
-15882.1
62531.2
-16626.5
121060
-20852
121352
-21930.4
119812
-24681.3
129888
-30110.5
133733
-42809.5
135921
-59711.6
125591
-68242.6
70027.8
-58789.8
-49580.5
-46926.8
-112066
-43977.8
-129996
-56232.7
-87731.8
-84374.9
-18880.5
-111496
24665.1
-127059
49822.7
-137018
52609.6
-134489
-2603.47
-100818
-23106.2
59601.7
-19993.9
117948
-21226.3
122585
-22618.5
121204
-24381.5
131650
-27898.9
137251
-36095.1
144117
-48892.7
138388
-56230.9
77366.1
-46491.7
-59319.8
-35135.9
-123421
-34986.7
-130146
-42449.5
-80269
-57837
-3493.01
-81290.8
48118.9
-94779.1
63311
-84292
42122.6
-69943
-16952.5
-77789.6
-32275.2
55686
-24853.9
110526
-22514.7
120246
-23468.7
122158
-24399.8
132582
-26445.7
139296
-31240.8
148913
-40034.4
147182
-44896.8
82228.5
-35165
-69051.6
-26561.1
-132025
-29521.8
-127185
-31975.9
-77814.9
-31755
-3713.86
-38841.6
55205.5
-37795.7
62265.1
-13575.1
17901.9
14643.9
-45171.5
-28166.4
-41244
50670.6
-30683.3
99965.6
-25116.6
114679
-24630.8
121672
-24802.6
132753
-25929.5
140423
-28465.7
151449
-33594
152310
-35118.8
83753.3
-25595.5
-78574.8
-21440.5
-136180
-26162.3
-122463
-23589.9
-80387.3
-12710.5
-14593.2
-4550.74
47045.7
6029.45
51685
17390.6
6540.82
25257.6
-53038.5
-40558.3
-50310.3
44353.4
-37189.3
86844.5
-28657.2
106147
-25897.3
118912
-25059
131915
-25701.3
141066
-27120
152868
-29532.4
154722
-27655.1
81875.9
-19073.7
-87156.2
-18701.1
-136553
-22245.7
-118919
-15894.3
-86738.7
-2375.85
-28111.6
11715.9
32954
24770
38630.8
30555.5
755.363
27502.1
-49985.1
-41302.2
-60866.2
38111.2
-46593
72571.4
-34983.5
94537.3
-28861.6
112790
-25911.3
128965
-25752.5
140907
-26809
153924
-27654
155568
-22242.9
76464.9
-15774.3
-93624.8
-16716.8
-135611
-17077.6
-118558
-9850.46
-93965.8
3486.76
-41448.9
16857.1
19583.6
29357.2
26130.8
33799.7
-3687.22
26311.8
-42497.2
-36407.2
-73642.3
33949.8
-61077.2
60006.3
-47296.9
80757
-37046.2
102540
-30252.4
122171
-28271.9
138926
-30261.9
155914
-31222.4
156528
-20257
65499.5
-13916.3
-99965.5
-15168.4
-134358
-12750.7
-120976
-6534.02
-100182
6429.3
-54412.2
18779.5
7233.42
28867.3
16043
30711.8
-5531.72
21505.9
-33291.3
-31130.2
-86548.5
35493.1
-81281.7
54739.4
-68801.7
68277
-56683.6
90421.5
-47498.4
112986
-44766
136194
-46478.2
157626
-40950.4
151000
-20954.3
45503.3
-13136.8
-107783
-13389.8
-134105
-9892.13
-124473
-4642.96
-105432
5782.91
-64838.1
16866.6
-3850.26
24046.1
8863.52
22997.3
-4482.97
15671.7
-25965.6
-27823
-84705
-92746.9
-91835.3
-88176.9
-84025.6
-80510.3
-72783.4
-51102.8
-23418.5
-13845.6
-11722.3
-8260.55
-3859.39
2022.72
9466.43
13924.4
14549.9
13050.9
613.559
-11962.3
1816
-15343.7
2931.14
-15076.3
3818.64
-14108.9
4344.34
-12874.8
4563.4
-11693.8
4412.06
-10501.1
3991.81
-9425.05
3456.37
-8277.49
2879.05
-7087.44
2293.54
-5909.03
1672.06
-4861.15
964.914
-4109.06
272.098
-3921.64
-255.309
-4545.22
-533.366
-6007.89
-554.689
-7932.68
-358.319
-9763.65
-110.912
-10294.5
-8305.99
-1032.13
-10930.2
-1324.71
-15051.2
-1332.48
-15068.6
-1248.29
-14193.1
-1205.48
-12917.7
-1219.21
-11680.2
-1148.39
-10572
-973.473
-9600.06
-533.077
-8717.99
252.979
-7873.62
1394.28
-7050.45
2784.89
-6251.88
4216.73
-5541
5406.87
-5111.86
6037.54
-5175.94
5887.1
-5857.5
4933.48
-6979.1
3328.42
-8158.61
1534.67
-8500.77
-6771.32
-321.276
-10609
412.588
-15785.1
1258.1
-15914.2
2016.21
-14951.3
2750.91
-13652.4
3453.53
-12382.9
4157.76
-11276.3
4922.41
-10364.8
5784.2
-9579.84
6768.29
-8857.77
7871.17
-8153.38
9062.82
-7443.59
10246.4
-6724.66
11173
-6038.43
11486.4
-5489.44
10847
-5218.04
9147.92
-5280.08
6490.93
-5501.63
3359.9
-5369.75
-3411.42
459.681
-11068.7
1380.95
-16706.4
2103
-16636.2
2618.88
-15467.2
3096.65
-14130.2
3598.77
-12885
4143.8
-11821.3
4684.75
-10905.8
5191.48
-10086.6
5648.92
-9315.24
6066.89
-8571.36
6468.43
-7845.16
6875.5
-7131.74
7258.68
-6421.62
7491.65
-5722.42
7325.81
-5052.2
6510.13
-4464.41
4882.51
-3874.02
2558.74
-3045.98
-852.681
1096.75
-12165.5
2143.31
-17753
2757.23
-17250.2
3170.36
-15880.4
3602.02
-14561.9
4103.09
-13386.1
4679.06
-12397.3
5263.71
-11490.5
5793.81
-10616.7
6213.06
-9734.55
6488.07
-8846.4
6604.49
-7961.62
6569.09
-7096.37
6398.85
-6251.43
6101.41
-5425
5627.6
-4578.41
4863.74
-3700.56
3650.39
-2660.67
1870.14
-1265.75
1017.46
2124.25
-14289.8
3167.41
-18796.2
3692.19
-17775
4174.18
-16362.4
4814.77
-15202.5
5609.66
-14181
6521.78
-13309.4
7427.19
-12395.9
8231.14
-11420.7
8854.81
-10358.2
9260.11
-9251.7
9419.64
-8121.16
9313.17
-6989.9
8921.31
-5859.57
8234.23
-4737.92
7243.11
-3587.29
5945.89
-2403.35
4293.78
-1008.57
2256.6
771.418
3274.06
2534.71
-16824.5
2961.55
-19223
3185.53
-17999
3621.22
-16798.1
4333.98
-15915.3
5283.98
-15131
6398.47
-14423.9
7478.47
-13475.9
8390.7
-12332.9
9049.88
-11017.4
9452.59
-9654.43
9580.23
-8248.79
9395.09
-6804.77
8834.19
-5298.68
7835.79
-3739.53
6350.55
-2102.05
4475.16
-527.975
2611.3
855.267
866.28
2516.42
4140.34
1014.63
-17839.1
200.507
-18408.9
-380.157
-17418.3
-740.331
-16437.9
-897.586
-15758
-884.625
-15144
-797.75
-14510.8
-801.046
-13472.6
-981.104
-12152.9
-1337.04
-10661.4
-1816.94
-9174.5
-2404.13
-7661.57
-3100.05
-6108.83
-3892.84
-4505.85
-4723.88
-2908.47
-5457.18
-1368.72
-5859.37
-125.786
-5566.41
562.311
-3809.62
759.623
330.717
-1078.95
-16760.2
-2320.17
-17167.7
-3560.89
-16177.6
-4890.97
-15107.8
-6189
-14460
-7525.04
-13807.9
-8913.34
-13122.5
-10364.8
-12021.1
-11864.3
-10653.4
-13396
-9129.75
-14950.1
-7620.35
-16499.4
-6112.35
-17954.1
-4654.09
-19098.1
-3361.86
-19530.2
-2476.44
-18645.7
-2253.21
-15960.6
-2810.9
-11379.1
-4019.15
-5310.49
-5309.01
-4979.77
-1528.09
-15232.1
-2209.01
-16486.7
-3246.71
-15139.9
-4640.34
-13714.2
-6114.7
-12985.6
-7836.19
-12086.4
-9628.08
-11330.6
-11357.4
-10291.8
-12849.3
-9161.45
-14086.5
-7892.52
-15056.5
-6650.32
-15695.5
-5473.34
-15855.8
-4493.81
-15355.7
-3861.92
-14020.4
-3811.69
-11716.5
-4557.15
-8498.98
-6028.4
-4817.44
-7700.68
-1703.67
-8422.78
-6683.44
-243.936
-14988.1
129.977
-16860.6
265.79
-15275.7
193.806
-13642.2
79.2762
-12871.1
-205.956
-11801.2
-532.414
-11004.1
-771.649
-10052.5
-736.831
-9196.25
-342.659
-8286.68
430.076
-7423.03
1566.22
-6609.46
2994.55
-5922.12
4557.69
-5425.04
5943.56
-5197.55
6693.87
-5307.45
6356.12
-5690.64
4786.85
-6131.39
2378.33
-6014.25
-4305.11
383.069
-15371.1
877.63
-17355.2
1269.95
-15667.9
1674.25
-14046.4
2123.63
-13320.4
2581.54
-12259
3063.06
-11485.6
3590.77
-10580.2
4198.91
-9804.34
4941.34
-9029.07
5821.55
-8303.2
6807.42
-7595.29
7788.86
-6903.52
8593.58
-6229.73
8994.71
-5598.65
8731.18
-5043.89
7627.23
-4586.66
5619.8
-4123.94
2985.79
-3380.19
-1319.32
879.268
-16250.4
1132.83
-17608.7
1500.66
-16035.7
1933.83
-14479.6
2436.59
-13823.2
2912.84
-12735.3
3420.07
-11992.8
3918.77
-11078.9
4410.22
-10295.8
4863.82
-9482.65
5273.24
-8712.59
5625.82
-7947.85
5914.83
-7192.5
6113.49
-6428.38
6163.34
-5648.47
5931.68
-4812.21
5256.37
-3911.33
3981.53
-2849.07
2093.43
-1492.03
774.111
1119.67
-17370
1106.98
-17596
1485.33
-16414
1931.4
-14925.6
2460.2
-14351.9
2953.73
-13228.8
3495.54
-12534.6
4040.03
-11623.3
4626.33
-10882
5228.02
-10084.3
5836.97
-9321.51
6400.73
-8511.57
6847.04
-7638.78
7066.69
-6648
6950.62
-5532.36
6419.01
-4280.57
5452.23
-2944.53
4030.42
-1427.22
2101.9
436.557
2876.01
922.944
-18293
721.657
-17394.7
1036.2
-16728.6
1413.76
-15303.2
1874.63
-14812.8
2359.23
-13713.4
2923.04
-13098.4
3542.4
-12242.6
4250.29
-11589.9
5032.32
-10866.3
5877.52
-10166.7
6704.35
-9338.38
7360.92
-8295.33
7606.14
-6893.2
7238.94
-5165.14
6258.23
-3299.84
4705.85
-1392.12
2769.86
508.815
1241.08
1965.39
4117.09
127.398
-18420.3
-306.059
-16961.2
-423.129
-16611.5
-484.995
-15241.3
-515.404
-14782.3
-466.531
-13762.2
-380.153
-13184.7
-207.602
-12415.2
29.2117
-11826.7
340.734
-11177.8
688.106
-10514
985.81
-9636.05
1058.02
-8367.5
713.394
-6548.52
7.15284
-4458.83
-626.665
-2665.9
-928.055
-1090.56
-958.869
539.783
-1235.92
2242.51
2881.17
-594.058
-17826.3
-1314.18
-16241.1
-1892.6
-16033
-2418.11
-14715.7
-2949.56
-14250.9
-3386.8
-13324.9
-3843.54
-12727.9
-4241.67
-12017
-4644.27
-11424.1
-5022.36
-10799.7
-5402.49
-10133.9
-5775.67
-9262.86
-6120.31
-8022.84
-6330.01
-6338.8
-6270.53
-4518.28
-5912.39
-3024.01
-5347.13
-1655.78
-4652.42
-154.892
-3384.99
975.133
-503.815
-1402.42
-16423.8
-2977.33
-14666.1
-4223.94
-14786.4
-5263.49
-13676.2
-6220.47
-13293.9
-6985.62
-12559.8
-7683.2
-12030.4
-8265.63
-11434.6
-8788.65
-10901
-9231.1
-10357.2
-9567.06
-9797.92
-9674.79
-9155.11
-9329.59
-8368.03
-8262.08
-7406.3
-6457.89
-6322.45
-4291.44
-5190.45
-2001.5
-3945.7
105.051
-2261.4
1062.51
17.7311
558.697
-1951.82
-14472
-4218.58
-12399.4
-6447.48
-12557.5
-8313.8
-11809.8
-10084.6
-11523.1
-11563.1
-11081.3
-12860.5
-10732.9
-13929.3
-10365.7
-14807.4
-10022.9
-15481
-9683.59
-15928.2
-9350.77
-16069.4
-9013.83
-15775.6
-8661.81
-14909.9
-8272.03
-13421.4
-7810.97
-11367.5
-7244.35
-8786.31
-6526.88
-5582.96
-5464.74
-1861.03
-3704.18
-1302.34
-5371.98
-8671.33
-12128.8
-14838.6
-17261.7
-19243
-20875.9
-22141.6
-23064.6
-23648.1
-23898.9
-23812.7
-23374.5
-22546.6
-21257.5
-19401.9
-16828.8
-13193.5
-7797.66
-5377.88
14477.9
-8682.11
12404.3
-12144.2
12562.1
-14857.7
11813.5
-17283.8
11526.1
-19267.2
11083.4
-20901.5
10734.4
-22167.9
10366.4
-23090.6
10022.7
-23673.1
9682.48
-23922.2
9349.12
-23834.6
9012.48
-23396.1
8661.48
-22569.1
8273.02
-21283.3
7814.22
-19434.9
7251.51
-16873.4
6538.56
-13251.5
5478.14
-7853.67
3702.13
1246.33
-1941.86
16419.8
-4193.35
14655.8
-6407.08
14775.9
-8254.22
13660.7
-10004.6
13276.5
-11459.5
12538.4
-12731.2
12006.1
-13771.4
11406.6
-14618.1
10869.4
-15257.1
10321.5
-15666.6
9758.64
-15769.3
9115.16
-15444
8336.19
-14569.7
7398.77
-13111.1
6355.64
-11127
5267.38
-8642.48
4054.05
-5547.49
2383.16
-1842.77
-2.57209
-596.442
-1376.66
17796.5
-2931.41
16210.5
-4155.47
15999.9
-5174.98
14680.2
-6111.95
14213.4
-6859.02
13285.4
-7538.97
12686
-8105.68
11973.4
-8613.73
11377.5
-9041.48
10749.2
-9358.34
10075.5
-9433.95
9190.78
-9035.4
7937.65
-7910.58
6273.95
-6089.86
4534.92
-3933.45
3110.98
-1628.6
1749.21
452.646
301.943
1242.97
-792.857
646.533
-613.624
18410.1
-1344.73
16941.6
-1941.88
16597.1
-2491.62
15229.9
-3049.01
14770.8
-3518.51
13754.9
-4012.79
13180.3
-4455.13
12415.7
-4911.77
11834.2
-5352.78
11190.2
-5801.14
10523.9
-6236.15
9625.79
-6612.57
8314.08
-6794.66
6456.05
-6646.83
4387.1
-6161.35
2625.51
-5423.91
1011.79
-4514.01
-607.945
-3162.71
-2144.14
-2516.17
79.0808
18331
-368.893
17389.6
-513.268
16741.5
-613.765
15330.4
-685.824
14842.9
-679.784
13748.9
-640.481
13141
-516.617
12291.9
-330.639
11648.2
-69.2621
10928.9
223.574
10231.1
460.309
9389.08
467.385
8307.02
86.8804
6836.58
-565.014
5039.03
-1096.7
3157.25
-1382.3
1297.47
-1554.82
-435.376
-1604.87
-2094.06
-4121.04
949.295
17381.7
678.501
17660.4
959.982
16460
1335.62
14954.8
1793.34
14385.2
2271.13
13271.1
2830.47
12581.7
3448.05
11674.3
4158.54
10937.7
4942.36
10145.1
5789.55
9383.88
6608.48
8570.15
7230.49
7685.02
7399.35
6667.73
6925.65
5512.73
5864.26
4218.64
4319.8
2841.93
2607.54
1276.9
1126.41
-612.927
-2994.63
1088.62
16293.1
1468.21
17280.8
2008.39
15919.8
2467.11
14496.1
3096.43
13755.9
3627.04
12740.5
4205.78
12003
4734.71
11145.4
5288.59
10383.8
5848.35
9585.31
6400.59
8831.63
6900.52
8070.23
7288.65
7296.89
7447.79
6508.6
7261.06
5699.46
6654.79
4824.91
5621.23
3875.49
4141.79
2756.34
2175.63
1353.23
-818.996
768.687
15524.4
1894.25
16155.3
2623.29
15190.8
2963.88
14155.5
3407.59
13312.2
3739.55
12408.6
4159.83
11582.7
4573.28
10731.9
5012.32
9944.79
5405.93
9191.69
5712.9
8524.66
5919.98
7863.14
6044.07
7172.8
6069.82
6482.84
5946.27
5823.01
5570.21
5200.97
4828.27
4617.43
3611.36
3973.25
1905.92
3058.68
1086.92
348.069
15176.4
1031.93
15471.4
1215.28
15007.5
988.943
14381.8
667.421
13633.7
329.396
12746.6
182.7
11729.4
368.067
10546.6
1088.04
9224.83
2255.15
8024.6
3534.15
7245.67
4734.43
6662.87
5739.63
6167.61
6433.48
5788.99
6732.92
5523.58
6503.06
5430.84
5647.92
5472.57
4148.57
5472.61
2185.95
5021.31
3272.87
-203.961
15380.3
-499.275
15766.7
-1149.48
15657.7
-2046.86
15279.2
-3075.38
14662.2
-4158.21
13829.4
-5155.9
12727.1
-5776.32
11167
-5495
8943.51
-4221.15
6750.73
-2596.66
5621.18
-831.601
4897.79
1043.01
4292.98
2872.61
3959.37
4353.96
4042.23
5084.18
4700.61
4793.71
5763.03
3537.52
6728.8
1729.9
6828.92
5002.78
-892.758
16273.1
-1777.59
16651.6
-2658.09
16538.2
-3538.09
16159.2
-4501.1
15625.2
-5634.63
14962.9
-7014.57
14107
-8624.9
12777.3
-10289.7
10608.3
-11582.7
8043.78
-12291.8
6330.29
-12682.8
5288.74
-12655.5
4265.71
-12030.5
3334.41
-10679.1
2690.79
-8529.85
2551.36
-5817.52
3050.69
-3119.97
4031.24
-1041.53
4750.48
3961.25
-420.054
16693.1
-912.605
17144.1
-1013.44
16639
-889.409
16035.2
-725.333
15461.1
-678.662
14916.3
-902.533
14330.9
-1594.39
13469.1
-3216.51
12230.4
-5767.1
10594.3
-8320.78
8883.96
-10700.1
7668.03
-12908.8
6474.39
-14756.5
5182.12
-15829.2
3763.47
-15529.4
2251.55
-13346
867.245
-9209.42
-105.304
-4144.18
-314.776
-182.932
1086.22
15606.9
1679.09
16551.2
2667.06
15651
3873.93
14828.3
5164.48
14170.6
6446.43
13634.3
7634.37
13142.9
8574.43
12529.1
8905.79
11899
8212.75
11287.4
6719.06
10377.6
4984.31
9402.77
3129.28
8329.41
1205.41
7105.97
-717.586
5686.44
-2475.81
4009.75
-3771.06
2162.47
-3976.01
99.6194
-2904.13
-1386.68
-3087.06
1850.97
13755.9
3196.84
15205.4
4567.98
14279.8
5927.74
13468.5
7258.83
12839.5
8559.11
12334
9819.09
11882.9
10988.6
11359.5
12074.7
10812.9
12966.3
10395.7
13369.1
9974.81
13332.3
9439.57
12918.3
8743.4
12136.6
7887.66
10919.7
6903.41
9146.6
5782.8
6772.43
4536.63
3790.01
3082.02
1135.21
1268.1
-1951.85
1531.4
12224.5
2871.87
13864.9
3986.75
13165
4906.78
12548.5
5688.8
12057.5
6381.96
11640.8
7032.96
11231.9
7654.6
10737.8
8279.54
10188
8933.72
9741.54
9485.76
9422.75
9811.39
9113.93
9842.93
8711.85
9553.09
8177.48
8930.31
7526.19
7945.87
6767.23
6567.1
5915.4
4780.25
4868.86
2640.13
3408.22
688.276
953.116
11271.3
2061.05
12756.9
2894.1
12331.9
3523.2
11919.4
4090.56
11490.1
4652.2
11079.1
5216.14
10668
5777.26
10176.7
6339.05
9626.18
6927.06
9153.51
7531.69
8818.11
8090.38
8555.22
8517.54
8284.68
8706.22
7988.79
8532.92
7699.48
7855.05
7445.09
6593.16
7177.29
4751.85
6710.17
2506.76
5653.31
3195.03
359.715
10911.6
776.689
12339.9
861.486
12247.1
988.725
11792.1
1398.55
11080.2
2013.68
10464
2744.63
9937
3597.83
9323.48
4598.61
8625.38
5785.59
7966.5
7182.56
7421.13
8700.33
7037.44
10093.6
6891.44
11003.7
7078.6
11112.2
7590.97
10253.8
8303.52
8470.34
8960.74
5920.59
9259.91
3041.49
8532.39
6236.52
-1278.91
12190.5
-2400.74
13461.7
-3761.41
13607.7
-4807.46
12838.1
-5403.52
11676.3
-5769.79
10830.3
-6026.15
10193.3
-6090.34
9387.66
-5877.4
8412.42
-5304.88
7393.97
-4306.9
6423.14
-2871.11
5601.63
-1048.79
5069.11
1012.2
5017.59
2998.02
5605.13
4402.45
6899.08
4693.13
8670.06
3737.95
10215.1
1912.83
10357.5
8149.35
-1529.27
13719.8
-3970.11
15902.6
-6446.31
16083.9
-8756.05
15147.9
-10814.4
13734.6
-12569.4
12585.2
-14051.2
11675.2
-15395.3
10731.7
-16595.3
9612.44
-17605.7
8404.36
-18336.1
7153.53
-18634.4
5899.9
-18268.6
4703.36
-16958.3
3707.23
-14586.9
3233.79
-11359.8
3671.98
-7800.4
5110.63
-4539.87
6954.57
-2036.99
7854.63
6112.36
1193.98
1831.48
2425.04
2742.61
2781.14
2746.01
2368.14
1955.79
1367.45
565.064
-459.872
-1675.17
-3004.19
-4306.05
-5270.05
-5436.92
-4541.39
-2824.49
-998.007
)
;

boundaryField
{
    outletWall
    {
        type            calculated;
        value           nonuniform List<scalar> 
60
(
68921.5
4943.11
-45587.4
-81910.2
-116472
-129515
-111795
-44555.1
93754.4
142394
128352
115595
91926.4
6621.27
-85339.5
-103354
-115820
-108473
-107699
-64050.1
76571.7
85005.2
77803.7
67108.3
56627.6
46259.4
36190.9
26035.7
18758
16456.9
17250.4
17336.5
15550.9
13685.3
13576.2
14419.1
14710.6
14483.3
14255.6
14412.1
-3427.3
-27558.4
-24466.6
-5108.49
4405.57
-11294
-70720.2
-109833
-127935
-136229
-117356
17819
129320
149899
132679
108834
86763
67365.4
62781.4
43626.4
)
;
    }
    fineWalls
    {
        type            calculated;
        value           uniform 0;
    }
    fineFrontAndBack
    {
        type            calculated;
        value           nonuniform List<scalar> 
960
(
-1.23786e-11
-7.39555e-11
-1.15574e-11
-9.7128e-12
-6.08037e-11
-1.03066e-11
-9.83416e-12
-9.87843e-12
-5.1334e-11
-6.76246e-12
-3.55785e-12
-7.00059e-11
-1.63316e-11
-1.59905e-11
-1.29435e-10
-2.4775e-11
-2.12955e-11
-1.02189e-10
-1.65106e-11
-1.48673e-11
-2.21276e-12
-2.57531e-12
-1.84196e-12
-1.79291e-12
-1.99953e-12
-2.02361e-12
-3.98321e-11
-1.90361e-12
-9.50494e-13
3.23076e-14
1.0526e-12
2.00445e-12
2.86303e-12
2.80389e-12
1.34611e-12
-8.88146e-13
-3.12736e-12
-4.69547e-12
-6.18977e-12
-8.05993e-12
-2.28721e-10
-3.94322e-11
-4.01241e-11
-3.57622e-11
-9.13719e-11
-8.11385e-13
2.68799e-12
6.15116e-12
1.40134e-10
3.23175e-11
3.5024e-11
1.73535e-10
1.44897e-11
8.45376e-12
6.21271e-12
7.08078e-11
2.36198e-11
3.11603e-11
4.10851e-11
3.27722e-10
1.18033e-11
9.90973e-12
8.91539e-12
7.79065e-12
6.94473e-12
6.29558e-12
5.75266e-12
5.18299e-12
4.68625e-12
4.40215e-12
4.29041e-12
4.25128e-12
4.36948e-12
1.53583e-10
5.07236e-12
5.00247e-12
4.53704e-12
3.89208e-12
3.4609e-12
3.26807e-12
1.78666e-11
1.99533e-11
1.33336e-10
2.74737e-11
3.03482e-11
1.74931e-10
3.45666e-11
3.49358e-11
1.90487e-10
4.23505e-11
4.35867e-11
2.64832e-10
6.50962e-11
6.76203e-11
6.29195e-11
2.20496e-10
2.57533e-11
2.03905e-11
8.70667e-11
1.98506e-11
4.18026e-11
3.18076e-11
2.19881e-11
1.60958e-11
1.24418e-11
1.45537e-11
2.41309e-11
4.03611e-11
5.47911e-11
9.49475e-11
1.64174e-10
2.21528e-10
2.36679e-10
2.09284e-10
1.36627e-10
8.79779e-11
8.03511e-11
9.87126e-11
1.09648e-10
4.12242e-11
3.1122e-11
2.15209e-11
1.57974e-11
1.23928e-11
1.4933e-11
2.71143e-11
4.69505e-11
7.15118e-11
1.28407e-10
1.96167e-10
2.29245e-10
2.24592e-10
2.1331e-10
1.43146e-10
9.11971e-11
7.92095e-11
9.47897e-11
7.27418e-11
4.05077e-11
3.02495e-11
2.09336e-11
1.54236e-11
1.23435e-11
1.55293e-11
3.21972e-11
5.81022e-11
8.92311e-11
1.40494e-10
1.88878e-10
2.05141e-10
1.97542e-10
2.11469e-10
1.5002e-10
9.68683e-11
7.92747e-11
9.45247e-11
2.57984e-11
3.95305e-11
2.93464e-11
2.0306e-11
1.50295e-11
1.2294e-11
1.63768e-11
4.02145e-11
7.64432e-11
1.09896e-10
1.46883e-10
1.72626e-10
1.75481e-10
1.63528e-10
1.86376e-10
1.58849e-10
1.07622e-10
8.30308e-11
9.58919e-11
2.92071e-11
3.85609e-11
2.85691e-11
1.96237e-11
1.46305e-11
1.22296e-11
1.76052e-11
5.22635e-11
1.00576e-10
1.29523e-10
1.45658e-10
1.4639e-10
1.33772e-10
1.24026e-10
1.50324e-10
1.62787e-10
1.19612e-10
9.06229e-11
1.00512e-10
3.49663e-11
3.9358e-11
2.76608e-11
1.8928e-11
1.422e-11
1.21223e-11
1.92142e-11
6.5595e-11
1.24591e-10
1.41732e-10
1.38569e-10
1.20102e-10
7.86826e-11
7.84338e-11
1.13276e-10
1.4587e-10
1.27912e-10
9.6503e-11
1.04889e-10
8.85213e-11
3.87316e-11
2.65809e-11
1.8306e-11
1.37789e-11
1.20602e-11
2.15459e-11
7.66912e-11
1.36062e-10
1.31093e-10
1.00999e-10
6.33164e-11
6.37522e-12
2.6276e-11
7.51839e-11
1.22477e-10
1.29955e-10
1.10975e-10
8.77887e-11
2.22089e-10
2.84364e-11
2.64802e-11
1.77203e-11
1.34504e-11
1.19988e-11
2.29198e-11
7.73911e-11
1.13336e-10
6.34528e-11
-1.11561e-11
-4.97446e-11
-5.19846e-11
-2.66856e-11
3.45716e-11
1.05341e-10
1.622e-10
2.63875e-10
4.22892e-10
5.28769e-10
1.04532e-11
2.79845e-11
1.69541e-11
1.29834e-11
1.24486e-11
3.09621e-11
8.93076e-11
9.50182e-11
2.40176e-11
-6.19095e-11
-8.1366e-11
-7.68122e-11
-5.72909e-11
-7.10093e-12
7.08006e-11
1.47059e-10
1.99734e-10
2.4047e-10
2.14464e-10
-1.69176e-12
2.96629e-11
1.6025e-11
1.3238e-11
1.37821e-11
1.2778e-11
7.83735e-12
9.46836e-11
1.34403e-11
-7.33394e-11
-8.27458e-11
-7.03079e-11
-5.11841e-11
-3.27473e-11
2.67516e-12
9.76631e-11
9.43765e-11
1.03636e-10
1.48657e-10
7.80619e-13
2.96947e-11
1.50733e-11
1.30038e-11
1.27199e-11
1.2129e-11
4.32799e-11
8.67427e-11
3.21278e-12
-8.81447e-11
-7.5292e-11
-5.22706e-11
-3.85578e-11
1.69005e-12
3.24464e-11
2.97337e-11
9.67249e-12
-1.16209e-11
3.09555e-11
1.35734e-11
2.81084e-11
1.41965e-11
1.20533e-11
1.23973e-11
1.86273e-11
6.55968e-11
7.64671e-11
3.72636e-12
-6.67991e-11
-4.76804e-11
-3.61291e-11
-4.23617e-11
-3.33459e-11
-2.38147e-11
-5.65146e-11
-1.30321e-10
-2.26947e-10
-2.42872e-10
2.84335e-11
2.79411e-11
1.39911e-11
1.09858e-11
1.34606e-11
2.50464e-11
6.24619e-11
6.63085e-11
5.2877e-12
-5.40647e-11
-3.65546e-11
-2.70217e-11
-3.64718e-11
-4.51554e-11
-6.26636e-11
-1.4872e-10
-2.89593e-10
-3.7434e-10
-3.53928e-10
4.37097e-11
3.39934e-11
1.64618e-11
1.08353e-11
1.47677e-11
2.91986e-11
5.66431e-11
5.68608e-11
4.81267e-12
-4.40813e-11
-2.77056e-11
-2.16216e-11
-3.37587e-11
-5.02762e-11
-7.04237e-11
-1.43588e-10
-2.23892e-10
-1.20391e-10
-6.74095e-11
5.7383e-11
4.72392e-11
2.41165e-11
1.34988e-11
1.62568e-11
3.09492e-11
5.17558e-11
4.87845e-11
2.57851e-12
-3.57994e-11
-2.01299e-11
-1.88583e-11
-3.22464e-11
-4.97271e-11
-6.69172e-11
-1.01481e-10
-1.3107e-10
-1.03277e-10
-9.10999e-11
6.06787e-11
5.9251e-11
3.57815e-11
2.11249e-11
2.05011e-11
3.31193e-11
4.89203e-11
4.27372e-11
3.87326e-14
-2.95847e-11
-1.52957e-11
-1.82399e-11
-3.02332e-11
-4.58177e-11
-6.30742e-11
-7.92288e-11
-9.43251e-11
-9.3355e-11
-9.19724e-11
4.92443e-11
5.89667e-11
4.47592e-11
3.26033e-11
2.98493e-11
3.85395e-11
4.85271e-11
3.77647e-11
-2.63725e-12
-2.48823e-11
-1.3669e-11
-1.84845e-11
-2.80584e-11
-4.1505e-11
-5.91089e-11
-7.24692e-11
-8.21675e-11
-8.88685e-11
-1.02468e-10
2.97679e-11
4.53812e-11
4.36448e-11
4.00087e-11
3.90554e-11
4.33539e-11
4.54772e-11
2.85527e-11
-7.93424e-12
-2.06891e-11
-1.38107e-11
-1.7982e-11
-2.70073e-11
-3.95806e-11
-5.42089e-11
-6.82648e-11
-7.50063e-11
-8.94853e-11
-1.0375e-10
1.54699e-11
3.2197e-11
3.58354e-11
3.75412e-11
3.84173e-11
3.76367e-11
3.08179e-11
1.0446e-11
-1.60127e-11
-1.81064e-11
-1.4307e-11
-1.74699e-11
-2.64237e-11
-3.93115e-11
-5.36632e-11
-6.57517e-11
-7.696e-11
-9.52382e-11
-1.0116e-10
-7.03036e-12
9.8534e-12
2.04876e-11
2.40207e-11
2.41106e-11
1.83975e-11
6.27278e-12
-1.0107e-11
-2.16281e-11
-1.79425e-11
-1.43951e-11
-1.71951e-11
-2.60551e-11
-3.92498e-11
-5.7459e-11
-7.12869e-11
-8.80983e-11
-1.00422e-10
-1.00422e-10
1.23786e-11
7.39555e-11
1.15574e-11
9.7128e-12
6.08037e-11
1.03066e-11
9.83416e-12
9.87843e-12
5.1334e-11
6.76246e-12
3.55785e-12
7.00059e-11
1.63316e-11
1.59905e-11
1.29435e-10
2.4775e-11
2.12955e-11
1.02189e-10
1.65106e-11
1.48673e-11
2.21276e-12
2.57531e-12
1.84196e-12
1.79291e-12
1.99953e-12
2.02361e-12
3.98321e-11
1.90361e-12
9.50494e-13
-3.23076e-14
-1.0526e-12
-2.00445e-12
-2.86303e-12
-2.80389e-12
-1.34611e-12
8.88146e-13
3.12736e-12
4.69547e-12
6.18977e-12
8.05993e-12
2.28721e-10
3.94322e-11
4.01241e-11
3.57622e-11
9.13719e-11
8.11385e-13
-2.68799e-12
-6.15116e-12
-1.40134e-10
-3.23175e-11
-3.5024e-11
-1.73535e-10
-1.44897e-11
-8.45376e-12
-6.21271e-12
-7.08078e-11
-2.36198e-11
-3.11603e-11
-4.10851e-11
-3.27722e-10
-1.18033e-11
-9.90973e-12
-8.91539e-12
-7.79065e-12
-6.94473e-12
-6.29558e-12
-5.75266e-12
-5.18299e-12
-4.68625e-12
-4.40215e-12
-4.29041e-12
-4.25128e-12
-4.36948e-12
-1.53583e-10
-5.07236e-12
-5.00247e-12
-4.53704e-12
-3.89208e-12
-3.4609e-12
-3.26807e-12
-1.78666e-11
-1.99533e-11
-1.33336e-10
-2.74737e-11
-3.03482e-11
-1.74931e-10
-3.45666e-11
-3.49358e-11
-1.90487e-10
-4.23505e-11
-4.35867e-11
-2.64832e-10
-6.50962e-11
-6.76203e-11
-6.29195e-11
-2.20496e-10
-2.57533e-11
-2.03905e-11
-8.70667e-11
-1.98506e-11
-4.18026e-11
-3.18076e-11
-2.19881e-11
-1.60958e-11
-1.24418e-11
-1.45537e-11
-2.41309e-11
-4.03611e-11
-5.47911e-11
-9.49475e-11
-1.64174e-10
-2.21528e-10
-2.36679e-10
-2.09284e-10
-1.36627e-10
-8.79779e-11
-8.03511e-11
-9.87126e-11
-1.09648e-10
-4.12242e-11
-3.1122e-11
-2.15209e-11
-1.57974e-11
-1.23928e-11
-1.4933e-11
-2.71143e-11
-4.69505e-11
-7.15118e-11
-1.28407e-10
-1.96167e-10
-2.29245e-10
-2.24592e-10
-2.1331e-10
-1.43146e-10
-9.11971e-11
-7.92095e-11
-9.47897e-11
-7.27418e-11
-4.05077e-11
-3.02495e-11
-2.09336e-11
-1.54236e-11
-1.23435e-11
-1.55293e-11
-3.21972e-11
-5.81022e-11
-8.92311e-11
-1.40494e-10
-1.88878e-10
-2.05141e-10
-1.97542e-10
-2.11469e-10
-1.5002e-10
-9.68683e-11
-7.92747e-11
-9.45247e-11
-2.57984e-11
-3.95305e-11
-2.93464e-11
-2.0306e-11
-1.50295e-11
-1.2294e-11
-1.63768e-11
-4.02145e-11
-7.64432e-11
-1.09896e-10
-1.46883e-10
-1.72626e-10
-1.75481e-10
-1.63528e-10
-1.86376e-10
-1.58849e-10
-1.07622e-10
-8.30308e-11
-9.58919e-11
-2.92071e-11
-3.85609e-11
-2.85691e-11
-1.96237e-11
-1.46305e-11
-1.22296e-11
-1.76052e-11
-5.22635e-11
-1.00576e-10
-1.29523e-10
-1.45658e-10
-1.4639e-10
-1.33772e-10
-1.24026e-10
-1.50324e-10
-1.62787e-10
-1.19612e-10
-9.06229e-11
-1.00512e-10
-3.49663e-11
-3.9358e-11
-2.76608e-11
-1.8928e-11
-1.422e-11
-1.21223e-11
-1.92142e-11
-6.5595e-11
-1.24591e-10
-1.41732e-10
-1.38569e-10
-1.20102e-10
-7.86826e-11
-7.84338e-11
-1.13276e-10
-1.4587e-10
-1.27912e-10
-9.6503e-11
-1.04889e-10
-8.85213e-11
-3.87316e-11
-2.65809e-11
-1.8306e-11
-1.37789e-11
-1.20602e-11
-2.15459e-11
-7.66912e-11
-1.36062e-10
-1.31093e-10
-1.00999e-10
-6.33164e-11
-6.37522e-12
-2.6276e-11
-7.51839e-11
-1.22477e-10