/*--------------------------------*- C++ -*----------------------------------*\
| =========                 |                                                 |
| \\      /  F ield         | OpenFOAM: The Open Source CFD Toolbox           |
|  \\    /   O peration     | Version:  4.1                                   |
|   \\  /    A nd           | Web:      www.OpenFOAM.org                      |
|    \\/     M anipulation  |                                                 |
\*---------------------------------------------------------------------------*/
FoamFile
{
    version     2.0;
    format      ascii;
    class       volVectorField;
    location    "30";
    object      U;
}
// * * * * * * * * * * * * * * * * * * * * * * * * * * * * * * * * * * * * * //

dimensions      [0 1 -1 0 0 0 0];

internalField   nonuniform List<vector> 
1280
(
(-8.94569e-15 1.31486 -8.01888)
(-1.25694e-14 4.61093 -10.7371)
(-8.35226e-15 4.45238 -7.28053)
(-7.01919e-15 5.52649 -6.52579)
(-1.03342e-14 8.97438 -9.70866)
(-7.44829e-15 7.98944 -7.49887)
(-7.10689e-15 9.98398 -7.97961)
(-7.27958e-15 10.2473 -7.61567)
(-8.34843e-15 14.6061 -12.4445)
(-4.88706e-15 14.1624 -9.48003)
(-2.38637e-15 15.7251 -8.46168)
(-1.28309e-14 21.1089 -15.9123)
(-1.18024e-14 20.5492 -13.0134)
(-1.18046e-14 22.8458 -12.0704)
(-2.336e-14 30.1987 -22.4957)
(-1.79042e-14 28.2387 -18.3548)
(-1.53897e-14 33.3387 -17.4422)
(-1.7368e-14 32.9474 -30.5398)
(-1.21153e-14 43.9766 -23.4456)
(-1.07442e-14 33.39 -37.5375)
(-9.07798e-15 43.4609 43.557)
(-1.05654e-14 43.4397 67.4911)
(-7.55675e-15 45.5047 80.8621)
(-7.35555e-15 47.4612 89.7427)
(-8.20322e-15 48.0497 96.1871)
(-8.30198e-15 50.6263 101.229)
(-8.39675e-15 51.2125 72.0006)
(-7.8097e-15 84.5187 121.149)
(-3.89946e-15 85.2689 121.49)
(1.32544e-16 84.9231 119.182)
(4.31837e-15 84.3343 115.608)
(8.2234e-15 83.4767 112.048)
(1.17458e-14 82.5406 109.302)
(1.15031e-14 81.5154 107.412)
(5.52251e-15 80.7833 106.596)
(-3.64368e-15 80.0203 107.129)
(-1.28302e-14 80.5459 109.087)
(-1.92635e-14 80.0499 111.481)
(-2.53939e-14 83.0125 112.649)
(-3.30664e-14 81.928 101.657)
(-3.98122e-14 113.149 102.468)
(-3.16724e-14 71.0175 71.6832)
(-3.22282e-14 64.5372 73.005)
(-2.85641e-14 54.3493 72.993)
(-1.33506e-14 47.6677 82.8294)
(-6.51715e-16 30.3128 51.6115)
(2.15903e-15 25.9845 47.0242)
(4.94069e-15 19.9761 39.0486)
(2.83254e-14 15.4339 29.914)
(2.58512e-14 7.86965 10.8978)
(2.87332e-14 7.04272 6.65003)
(3.02063e-14 3.22209 7.45818)
(1.16383e-14 -1.41301 16.8917)
(6.79017e-15 -3.00143 27.1271)
(4.99013e-15 -7.67168 37.3264)
(1.23251e-14 -18.7826 75.9092)
(1.94301e-14 -30.4715 85.3722)
(2.50284e-14 -41.7102 88.9049)
(3.30001e-14 -50.195 87.6385)
(5.72604e-14 -91.0366 121.241)
(4.8424e-14 -75.7628 108.097)
(4.06553e-14 -77.4668 112.513)
(3.65759e-14 -77.0457 108.946)
(3.19616e-14 -78.2658 106.805)
(2.84912e-14 -79.2023 105.33)
(2.5828e-14 -80.2992 105.483)
(2.36006e-14 -81.1471 106.651)
(2.12635e-14 -81.7748 108.417)
(1.92256e-14 -82.0814 110.218)
(1.80601e-14 -82.0956 111.669)
(1.76017e-14 -81.8059 112.66)
(1.74411e-14 -80.9369 113.608)
(1.79261e-14 -80.0626 114.414)
(3.23759e-14 -41.6783 61.6577)
(2.08097e-14 -46.2595 93.312)
(2.05229e-14 -42.3952 89.3599)
(1.86135e-14 -41.0053 85.3551)
(1.59675e-14 -38.1078 78.1197)
(1.41986e-14 -35.6137 65.2978)
(1.34074e-14 -34.8662 44.0644)
(1.29117e-14 -23.9899 -31.7458)
(1.4366e-14 -36.0901 -24.5907)
(2.26617e-14 -20.4886 -32.1845)
(1.98545e-14 -23.4096 -17.1467)
(2.19318e-14 -18.0035 -19.7376)
(2.9544e-14 -17.3477 -25.1545)
(2.49803e-14 -12.3811 -14.9035)
(2.52472e-14 -9.45912 -16.8064)
(3.43333e-14 -6.84732 -21.9097)
(2.84878e-14 -3.71162 -13.0647)
(2.96986e-14 -1.21012 -14.1542)
(5.02766e-14 1.7135 -19.5141)
(4.78893e-14 3.90552 -14.1389)
(4.88674e-14 6.42861 -13.8317)
(4.54703e-14 7.78751 -12.4793)
(3.74753e-14 12.5138 -18.5002)
(1.86112e-14 12.9256 -13.9579)
(1.47357e-14 16.2383 -12.8549)
(1.46739e-14 16.6728 -18.5793)
(1.43455e-14 22.5426 -19.2837)
(4.64473e-15 -21.2693 12.076)
(3.53418e-15 -35.8988 12.6896)
(2.44312e-15 -36.0892 12.1746)
(1.78842e-15 -38.5766 10.7297)
(1.38242e-15 -34.4793 9.95368)
(1.61708e-15 -28.581 9.07427)
(2.68121e-15 0.908901 6.00947)
(4.48457e-15 30.7722 1.75061)
(6.0879e-15 38.3056 8.76887)
(1.05497e-14 42.536 19.1309)
(1.82415e-14 47.4814 25.0498)
(2.46142e-14 32.0882 24.5502)
(2.62977e-14 -12.8911 4.40862)
(2.32538e-14 -36.2402 -9.76332)
(1.51807e-14 -42.6521 -19.5206)
(9.77532e-15 -38.6503 -24.3965)
(8.9279e-15 -27.3355 -25.7104)
(1.09681e-14 -15.1865 -24.8182)
(1.21831e-14 1.45074 -26.063)
(4.58046e-15 -21.7708 12.0601)
(3.458e-15 -35.8864 13.0279)
(2.39122e-15 -35.5677 12.4705)
(1.75526e-15 -37.842 11.2316)
(1.37697e-15 -33.8078 10.6944)
(1.65922e-15 -26.9309 10.2267)
(3.0127e-15 7.69569 5.29575)
(5.21673e-15 28.942 5.87274)
(7.94576e-15 32.2464 17.7147)
(1.42674e-14 36.9081 31.1019)
(2.17963e-14 45.5395 41.1452)
(2.54717e-14 37.8632 43.4417)
(2.49547e-14 -4.58954 16.1593)
(2.37011e-14 -30.2763 -8.4526)
(1.59051e-14 -38.5893 -17.2497)
(1.0133e-14 -36.8294 -22.9455)
(8.80106e-15 -27.0773 -25.1101)
(1.05322e-14 -15.314 -25.1892)
(8.08243e-15 -0.955406 -22.9065)
(4.50085e-15 -21.9768 12.2207)
(3.36106e-15 -35.9314 13.4227)
(2.32596e-15 -35.2743 12.8631)
(1.71374e-15 -37.6184 11.8831)
(1.3715e-15 -33.8653 11.7294)
(1.72548e-15 -26.5821 11.8946)
(3.57746e-15 5.90428 8.17067)
(6.4558e-15 25.5761 11.4703)
(9.91456e-15 27.6608 24.1865)
(1.56104e-14 32.5132 39.1246)
(2.09865e-14 42.5725 52.7626)
(2.27934e-14 41.5165 58.4017)
(2.19491e-14 9.95328 34.8646)
(2.34966e-14 -21.7639 -5.31536)
(1.66688e-14 -35.5297 -12.7999)
(1.07631e-14 -35.0935 -19.744)
(8.8083e-15 -26.191 -23.3424)
(1.05027e-14 -15.524 -24.8843)
(2.86649e-15 -1.38783 -22.1337)
(4.39228e-15 -22.3323 12.4076)
(3.26071e-15 -36.0291 13.7397)
(2.25622e-15 -35.0431 13.3293)
(1.66994e-15 -37.488 12.5886)
(1.366e-15 -34.0089 12.9916)
(1.81965e-15 -26.1662 13.7056)
(4.46828e-15 5.60614 11.9322)
(8.49369e-15 22.1147 17.1865)
(1.22107e-14 21.4879 32.2615)
(1.63204e-14 26.148 49.3467)
(1.91806e-14 38.673 65.3954)
(1.94979e-14 44.4763 74.9405)
(1.81698e-14 23.8631 56.0445)
(2.07084e-14 -12.9011 7.31629)
(1.76499e-14 -32.6727 -6.89096)
(1.1958e-14 -32.8855 -13.9128)
(9.22565e-15 -25.1964 -19.4805)
(1.06547e-14 -16.3485 -23.1967)
(3.24524e-15 -4.40893 -23.3761)
(4.28455e-15 -22.7216 12.1669)
(3.17434e-15 -36.194 13.9554)
(2.18041e-15 -34.8728 13.8821)
(1.62561e-15 -37.4752 13.3142)
(1.35884e-15 -34.3429 14.4021)
(1.95613e-15 -26.0524 15.618)
(5.80705e-15 4.55837 16.1375)
(1.11751e-14 17.3255 24.4276)
(1.43914e-14 14.2629 42.6128)
(1.61843e-14 18.5517 60.3735)
(1.62656e-14 31.9572 74.9054)
(1.48636e-14 45.4448 89.2276)
(1.37807e-14 36.1096 78.0342)
(1.67027e-14 2.54108 37.8485)
(1.80875e-14 -26.5608 1.78688)
(1.32902e-14 -29.9599 -4.63975)
(1.00692e-14 -21.541 -13.9292)
(1.1168e-14 -13.1432 -20.7071)
(3.88514e-15 -0.830019 -25.3074)
(4.37311e-15 -23.2454 11.4675)
(3.07342e-15 -36.6012 14.2469)
(2.10311e-15 -34.8214 14.4759)
(1.58e-15 -37.6633 14.0211)
(1.34692e-15 -34.9961 15.8779)
(2.13491e-15 -26.6317 17.6696)
(7.28833e-15 1.56113 21.0593)
(1.38435e-14 11.5263 34.2911)
(1.5748e-14 7.33717 54.585)
(1.53965e-14 14.3495 72.581)
(1.33447e-14 26.6939 82.162)
(8.74251e-15 42.4193 99.3554)
(8.71487e-15 44.2989 93.5659)
(1.25863e-14 18.5509 67.0302)
(1.62078e-14 -16.4899 23.3465)
(1.42124e-14 -26.5792 7.55306)
(1.07226e-14 -20.0694 -6.35485)
(1.16544e-14 -14.9472 -14.2993)
(9.8357e-15 -4.69813 -37.7355)
(4.30351e-15 -24.0205 11.5613)
(2.95344e-15 -37.2823 14.5493)
(2.034e-15 -34.8236 15.1809)
(1.53099e-15 -38.0234 14.6323)
(1.34003e-15 -35.9285 17.2845)
(2.39399e-15 -27.7752 19.6855)
(8.52125e-15 -2.62336 27.5394)
(1.51181e-14 4.45595 49.7354)
(1.45658e-14 -1.04654 69.087)
(1.12221e-14 6.85832 86.8532)
(7.03515e-15 22.1668 94.4784)
(7.08357e-16 41.2145 104.374)
(2.91955e-15 49.2251 100.298)
(8.35376e-15 30.6897 87.7382)
(1.36085e-14 -3.06447 53.5105)
(1.44394e-14 -17.3498 25.3213)
(1.23305e-14 -7.64844 5.72615)
(9.7543e-15 5.71311 -17.381)
(2.46766e-14 13.3906 -22.9043)
(3.1596e-15 -24.6587 13.1109)
(2.94224e-15 -37.938 13.9447)
(1.96892e-15 -34.8907 16.15)
(1.49449e-15 -38.4886 15.036)
(1.3332e-15 -37.1905 18.4723)
(2.54665e-15 -30.5332 21.8716)
(8.59901e-15 -11.3619 37.7438)
(1.25929e-14 -5.34689 72.0507)
(7.05031e-15 -8.03517 93.2457)
(-1.23957e-15 3.28329 103.318)
(-5.52717e-15 20.3928 99.0274)
(-5.77607e-15 40.9917 93.4034)
(-2.96506e-15 50.7014 96.313)
(3.84129e-15 37.2232 97.4647)
(1.17046e-14 8.21654 81.787)
(1.80222e-14 -8.77236 63.217)
(2.93194e-14 -8.53754 70.5793)
(4.6988e-14 -14.2892 99.4188)
(5.87521e-14 -42.2899 117.432)
(1.16147e-15 -24.5684 14.6015)
(3.10939e-15 -38.4006 11.567)
(1.88379e-15 -35.2835 17.3008)
(1.4426e-15 -38.9259 15.2275)
(1.38318e-15 -38.7714 19.1625)
(3.44024e-15 -34.8208 22.9949)
(9.92307e-15 -22.3654 39.5855)
(1.05576e-14 -16.1718 71.7127)
(2.66862e-15 -13.1535 91.3105)
(-6.87883e-15 5.4868 90.2127)
(-9.04067e-15 24.9682 79.7432)
(-8.53469e-15 41.4843 74.288)
(-6.36566e-15 47.6639 81.2025)
(-7.88992e-16 36.3096 96.8919)
(7.86673e-15 9.90926 100.318)
(1.63399e-14 -11.253 96.3065)
(2.21926e-14 -16.8058 105.847)
(2.67189e-14 -11.4532 118.855)
(2.38293e-14 -7.19804 105.066)
(-1.87973e-16 -23.6254 14.5739)
(3.29587e-15 -38.9229 8.3907)
(1.78056e-15 -36.3775 18.1859)
(1.47088e-15 -39.2359 15.4953)
(1.53135e-15 -40.3982 19.4211)
(1.41977e-15 -38.6899 23.0263)
(4.63754e-16 -31.5073 36.6418)
(1.05204e-14 -25.4273 62.8591)
(1.49337e-15 -16.716 80.5098)
(-8.14882e-15 7.69376 74.9414)
(-9.19397e-15 27.3038 63.5253)
(-7.99151e-15 40.8191 56.8572)
(-5.68712e-15 41.7463 62.827)
(-3.63859e-15 29.8395 86.8993)
(-1.55363e-15 7.83577 102.257)
(1.08515e-14 -11.9882 101.51)
(1.04863e-14 -18.4519 101.019)
(1.15151e-14 -12.0475 92.3315)
(1.65175e-14 -1.893 56.0259)
(8.67354e-17 -22.2966 14.0065)
(3.29941e-15 -39.724 7.22121)
(1.67481e-15 -38.1342 18.3083)
(1.44486e-15 -39.4376 16.142)
(1.41332e-15 -41.8282 19.4344)
(1.34766e-15 -41.6827 22.4635)
(5.25621e-15 -38.532 32.3957)
(9.63807e-15 -33.0657 52.3126)
(3.56975e-16 -18.9411 69.1203)
(-9.79385e-15 12.2029 64.1217)
(-8.36577e-15 31.6653 53.0021)
(-5.80785e-15 41.7021 45.0264)
(-4.2842e-15 35.6519 47.8455)
(1.87784e-16 20.731 72.2716)
(3.60516e-15 4.56246 96.1711)
(3.30374e-15 -10.0324 98.6258)
(1.07472e-15 -12.9609 97.5728)
(-1.29121e-15 0.800926 92.777)
(3.4395e-15 19.0086 68.8661)
(1.50816e-15 -21.2743 16.0049)
(3.12315e-15 -40.4927 10.053)
(1.57739e-15 -39.9525 17.7013)
(1.33925e-15 -39.7223 17.0981)
(1.37748e-15 -42.9328 19.4001)
(2.06971e-15 -43.8513 21.7184)
(7.28854e-15 -43.6039 28.4483)
(8.49634e-15 -39.375 42.4904)
(4.1404e-16 -21.9829 58.4424)
(-7.42212e-15 14.6996 54.7594)
(-5.29783e-15 35.2092 42.9818)
(-4.01435e-15 42.9606 34.9758)
(-4.70686e-15 30.9299 38.1435)
(-3.7051e-15 10.3696 55.4021)
(-2.64608e-15 -3.28749 85.3459)
(-6.2794e-15 -13.1694 100.759)
(-1.44801e-14 -15.5731 111.379)
(-2.52163e-14 0.231816 118.819)
(-2.69858e-14 28.3489 101.161)
(3.15927e-15 -20.3772 22.0814)
(3.10456e-15 -40.1892 16.0212)
(1.55457e-15 -40.9345 17.314)
(1.22064e-15 -40.1481 18.1171)
(1.49562e-15 -43.661 19.5202)
(2.78293e-15 -45.3145 21.1121)
(6.94021e-15 -47.0299 25.3755)
(7.36762e-15 -44.3832 34.3916)
(5.87522e-16 -24.7277 48.4734)
(-6.00719e-15 18.2608 44.8217)
(-4.06162e-15 39.4524 32.2447)
(-3.00241e-15 43.6892 26.1144)
(-4.05243e-15 27.5915 32.0584)
(-5.01726e-15 2.2839 38.3941)
(-6.96262e-15 -13.1802 58.0729)
(-1.65244e-14 -19.8417 77.7114)
(-3.2177e-14 -18.1467 81.1457)
(-4.15933e-14 3.17788 60.1338)
(-3.93253e-14 46.1656 52.1486)
(4.85663e-15 -19.4061 30.4859)
(3.77705e-15 -38.4569 22.9828)
(1.82909e-15 -40.8111 18.4096)
(1.20392e-15 -40.6696 19.1822)
(1.64086e-15 -44.1178 19.8671)
(3.24429e-15 -46.1946 20.8001)
(6.29368e-15 -49.0516 23.2852)
(6.31786e-15 -47.8774 28.4164)
(5.34742e-16 -26.84 39.5438)
(-4.89792e-15 21.3073 35.1063)
(-3.0784e-15 42.8134 22.8274)
(-2.4024e-15 43.1019 21.3499)
(-3.75097e-15 26.0007 27.7441)
(-5.58624e-15 0.111619 24.9958)
(-7.82486e-15 -18.5222 28.1963)
(-1.59542e-14 -21.8448 37.0144)
(-2.48769e-14 -9.97352 26.9229)
(-1.33768e-14 9.01156 -2.83431)
(-7.48994e-15 2.99258 -26.5984)
(6.37589e-15 -17.6865 38.816)
(5.2488e-15 -35.181 29.6875)
(2.67961e-15 -39.325 21.3813)
(1.49986e-15 -40.7523 20.5581)
(1.80631e-15 -44.2715 20.4265)
(3.4388e-15 -46.6949 20.9136)
(5.75065e-15 -50.2793 22.3321)
(5.42049e-15 -50.3274 24.7905)
(2.86501e-16 -28.1044 32.1706)
(-3.97771e-15 24.6433 26.5355)
(-2.23665e-15 45.1292 15.1835)
(-2.09536e-15 41.6676 20.5922)
(-3.58293e-15 25.9683 22.8947)
(-5.52524e-15 2.57471 15.7166)
(-7.43524e-15 -18.1818 5.95804)
(-1.12757e-14 -19.8512 2.11366)
(-1.45633e-14 -2.81244 -11.4547)
(-1.14752e-14 18.6125 -17.2741)
(-1.01222e-14 14.4161 -28.7152)
(6.74207e-15 -16.2203 47.3806)
(6.58344e-15 -31.5488 36.3219)
(3.97573e-15 -37.198 25.5701)
(2.34722e-15 -40.4053 22.2757)
(2.27789e-15 -44.2541 20.8204)
(3.67992e-15 -46.9165 20.9482)
(5.43559e-15 -50.6445 21.9358)
(4.74858e-15 -51.1283 23.0242)
(4.30363e-18 -27.7167 26.796)
(-3.28719e-15 27.7103 19.8012)
(-1.69952e-15 45.6569 10.9096)
(-2.02666e-15 40.0209 20.4424)
(-3.35924e-15 27.5539 16.4206)
(-5.09085e-15 7.03174 9.24442)
(-7.00824e-15 -13.1771 -4.40623)
(-8.8032e-15 -14.917 -14.9035)
(-1.04806e-14 -1.50884 -25.8407)
(-1.03728e-14 16.8913 -24.9034)
(-1.02192e-14 13.1582 -23.2044)
(5.47159e-15 -13.1767 56.1167)
(6.55185e-15 -26.1629 45.1808)
(4.97324e-15 -33.4507 32.3827)
(3.62258e-15 -38.8038 25.9989)
(3.31659e-15 -43.6743 22.0471)
(4.28217e-15 -47.1886 21.1481)
(5.3919e-15 -51.4491 21.8276)
(4.19608e-15 -52.2936 22.6776)
(-2.93027e-16 -27.1648 23.6248)
(-2.76469e-15 30.21 14.218)
(-1.51878e-15 45.4092 11.0291)
(-2.05383e-15 39.2801 17.0678)
(-3.1176e-15 30.3052 11.1433)
(-4.61167e-15 11.6083 4.33654)
(-6.56766e-15 -8.58449 -8.95633)
(-8.05213e-15 -10.7312 -19.0245)
(-9.12973e-15 0.363931 -29.6124)
(-9.87428e-15 15.9965 -26.5171)
(-1.13853e-14 13.9291 -19.0295)
(3.30754e-15 -12.4671 64.9901)
(5.04236e-15 -22.5124 57.5952)
(4.84942e-15 -29.7514 44.173)
(4.44541e-15 -36.4967 34.704)
(4.33949e-15 -42.3421 26.9887)
(4.8171e-15 -46.6635 23.4454)
(5.05302e-15 -50.8697 23.7504)
(3.17252e-15 -50.9649 26.6094)
(-8.81582e-16 -23.5498 25.1926)
(-2.29879e-15 31.8708 9.52655)
(-1.53453e-15 44.9584 12.7889)
(-1.998e-15 39.7284 12.7178)
(-3.00081e-15 32.4328 8.2954)
(-4.39785e-15 16.2653 1.93769)
(-6.02321e-15 -4.43061 -11.585)
(-7.58498e-15 -6.88569 -19.7073)
(-8.33404e-15 1.98242 -28.3165)
(-9.94281e-15 12.4379 -22.7262)
(-1.15278e-14 10.6663 -14.1492)
(1.71888e-15 -9.73209 71.0435)
(3.57744e-15 -16.98 72.9909)
(3.98171e-15 -23.7453 62.4755)
(4.17125e-15 -31.65 52.2166)
(4.26858e-15 -39.0061 42.2338)
(4.18185e-15 -46.0551 36.9634)
(3.42421e-15 -53.6245 37.689)
(1.16066e-15 -54.5258 39.667)
(-1.77918e-15 -21.6106 28.0016)
(-2.01182e-15 34.7705 8.33931)
(-1.58967e-15 44.5306 12.5813)
(-1.9411e-15 40.7782 9.97854)
(-2.93596e-15 34.0107 6.26531)
(-4.36795e-15 19.6578 1.18479)
(-5.96258e-15 -1.34342 -10.0576)
(-7.30574e-15 -4.00944 -17.9987)
(-8.55111e-15 1.53713 -22.3133)
(-1.0582e-14 9.60461 -15.8684)
(-1.124e-14 9.79769 -10.7809)
(-7.81151e-16 -14.3765 63.9023)
(1.09482e-15 -20.4017 77.0889)
(2.2764e-15 -22.2391 77.5979)
(2.66897e-15 -28.8633 75.4521)
(2.67896e-15 -36.3504 71.4921)
(2.04417e-15 -44.4772 68.5437)
(6.96975e-16 -50.5614 65.6705)
(-1.123e-15 -44.2437 55.7825)
(-2.40312e-15 -6.67269 28.4048)
(-1.99361e-15 38.2398 11.7314)
(-1.59945e-15 45.2197 10.943)
(-1.91057e-15 42.504 8.71559)
(-2.89501e-15 36.6026 4.99757)
(-4.36109e-15 23.7124 1.36879)
(-6.38433e-15 4.01231 -4.61341)
(-7.92077e-15 -1.65082 -10.8203)
(-9.78871e-15 1.83189 -12.8116)
(-1.1158e-14 8.10327 -11.3547)
(-1.1158e-14 9.04116 -10.483)
(-7.52192e-15 117.777 203.619)
(-5.73114e-14 148.266 252.413)
(-4.30307e-14 147.123 245.754)
(-3.99984e-14 139.347 229.352)
(-4.3496e-14 130.523 210.975)
(-3.9089e-14 120.544 192.987)
(-2.49158e-14 109.493 173.025)
(-1.75143e-14 98.672 156.4)
(-2.83393e-15 86.4265 136.259)
(1.15784e-14 72.5869 114.55)
(2.75374e-14 58.7634 92.5758)
(4.5571e-14 46.5405 73.3553)
(6.19898e-14 37.8294 60.4156)
(6.20304e-14 34.4815 57.1496)
(3.38682e-14 39.0072 67.2628)
(-2.42987e-15 51.9587 91.4844)
(-2.71709e-14 71.1219 123.812)
(-2.9971e-14 87.4138 154.809)
(-3.44094e-14 96.8926 163.918)
(-4.5484e-14 71.5484 130.949)
(-7.91833e-15 98.8242 169.419)
(-5.75408e-14 124.899 223.07)
(-4.08122e-14 126.281 221.254)
(-4.37334e-14 116.891 207.765)
(-5.18612e-14 106.879 188.134)
(-6.19806e-14 95.5114 169.651)
(-4.55897e-14 86.1447 152.775)
(-4.25013e-14 76.9929 136.811)
(-3.67639e-14 68.873 121.708)
(-3.63105e-14 61.5898 106.961)
(-3.35343e-14 55.5415 92.9479)
(-3.0179e-14 50.7153 80.0874)
(-3.57968e-14 47.7233 70.0044)
(-4.24778e-14 48.648 67.2065)
(-5.9655e-14 55.5348 75.5167)
(-7.47717e-14 67.3948 95.6809)
(-7.79099e-14 82.4042 122.093)
(-6.0703e-14 92.8948 147.079)
(-5.03909e-14 95.488 154.157)
(-6.75606e-14 72.3313 126.216)
(-2.01638e-16 96.3912 164.33)
(-1.68556e-14 136.019 238.304)
(-1.09232e-14 141.967 240.708)
(-1.09401e-14 134.022 227.26)
(-1.37106e-14 125.144 207.62)
(-4.27665e-14 114.773 188.045)
(-3.17509e-14 106.463 170.87)
(-2.8375e-14 99.8147 157.021)
(-3.39142e-14 94.5912 145.112)
(-4.00692e-14 90.0108 134.02)
(-3.9238e-14 85.691 122.877)
(-3.92247e-14 81.3436 111.339)
(-4.28129e-14 77.0623 99.5873)
(-4.76649e-14 73.205 89.0894)
(-5.41894e-14 70.993 82.6676)
(-5.99538e-14 71.128 83.4644)
(-5.74087e-14 73.615 91.5956)
(-4.75622e-14 75.547 102.861)
(-3.87724e-14 71.4187 106.19)
(-5.87402e-14 50.246 80.1641)
(5.0257e-16 97.3961 163.799)
(5.32707e-15 144.12 248.506)
(4.02647e-15 148.91 250.033)
(3.83938e-15 139.597 233.878)
(5.99973e-15 129.308 213.602)
(-1.96278e-14 118.85 194.153)
(-2.05927e-14 110.2 177.295)
(-1.94865e-14 103.112 163.098)
(-2.25151e-14 97.0675 150.837)
(-2.60203e-14 91.5969 139.684)
(-2.63616e-14 86.3557 129.126)
(-2.88402e-14 81.2049 118.8)
(-3.4905e-14 75.9901 108.401)
(-3.51539e-14 70.6945 97.7401)
(-3.82926e-14 65.277 87.2351)
(-4.37753e-14 60.357 78.0732)
(-4.38821e-14 55.6186 71.892)
(-4.23441e-14 51.3653 67.5347)
(-4.47078e-14 41.7993 60.4276)
(-7.44917e-14 21.3388 27.1999)
(-1.4797e-16 104.748 175.719)
(-1.0884e-15 155.708 264.888)
(-8.89077e-16 156.496 261.227)
(-8.17294e-16 145.406 241.384)
(-1.39567e-15 134.215 220.478)
(4.85988e-15 124.271 201.578)
(5.6924e-15 116.107 185.698)
(5.42048e-15 109.286 171.726)
(5.9407e-15 102.924 158.798)
(6.7969e-15 96.6502 146.239)
(6.61066e-15 90.2278 133.935)
(6.59777e-15 83.7076 121.948)
(6.86821e-15 77.0827 110.426)
(6.69908e-15 70.4804 99.2683)
(6.59891e-15 63.5459 88.2873)
(6.70917e-15 56.4441 76.855)
(6.55682e-15 47.9585 64.9723)
(6.89876e-15 39.0675 51.1828)
(8.83999e-15 23.4784 32.7567)
(1.46247e-14 5.46156 -1.72582)
(2.33474e-17 119.19 199.374)
(1.5639e-16 168.537 281.806)
(1.32655e-16 162.792 269.951)
(1.15327e-16 151.277 247.623)
(2.10932e-16 140.452 227.941)
(-7.61041e-16 132.349 210.617)
(-9.85186e-16 125.361 196.007)
(-9.53387e-16 119.323 181.992)
(-9.47263e-16 112.875 167.942)
(-9.87896e-16 105.888 153.253)
(-9.09072e-16 98.1642 138.116)
(-7.92318e-16 89.8881 122.754)
(-6.88113e-16 81.1038 107.512)
(-5.23482e-16 72.0182 92.5124)
(-2.77021e-16 62.34 77.8811)
(5.46057e-17 52.363 63.0394)
(4.21184e-16 40.6039 47.616)
(6.12146e-16 28.2042 28.861)
(1.55676e-16 6.21421 3.19405)
(7.09006e-15 -8.8004 -34.0209)
(-2.20456e-18 141.483 241.238)
(-1.53348e-17 179.163 297.274)
(-1.2041e-17 165.279 277.757)
(-9.20806e-18 155.89 256.742)
(-1.96151e-17 146.296 240.903)
(9.37972e-17 141.04 226.94)
(1.26033e-16 135.416 214.839)
(1.1771e-16 130.121 200.858)
(1.01248e-16 122.751 185.029)
(8.70555e-17 114.203 167.174)
(6.25763e-17 104.369 148.423)
(3.25296e-17 93.8685 129.164)
(1.09003e-19 82.5976 109.762)
(-5.06934e-17 70.6711 90.1458)
(-1.40994e-16 57.6262 70.4452)
(-2.89428e-16 43.8027 50.1465)
(-5.12852e-16 27.8374 29.7085)
(-7.53893e-16 12.3778 6.62604)
(-8.44535e-16 -12.9708 -20.4733)
(7.74163e-16 -22.64 -59.8748)
(2.12817e-20 156.894 275.852)
(5.35315e-19 174.177 293.843)
(-6.60556e-20 156.786 275.742)
(-3.62556e-19 150.308 259.799)
(4.88522e-19 140.569 248.494)
(-1.29213e-17 136.497 238.363)
(-1.55936e-17 129.65 228.795)
(-1.30464e-17 122.081 213.722)
(-8.68344e-18 110.078 194.561)
(-4.26459e-18 96.9881 172.208)
(9.07375e-19 82.5656 149.394)
(5.13649e-18 68.0359 125.899)
(1.05682e-17 52.4856 101.536)
(3.16079e-17 36.1153 75.6903)
(9.35728e-17 18.735 48.4812)
(1.74565e-16 0.429773 19.7369)
(2.53352e-17 -16.0457 -6.5935)
(-5.38261e-16 -26.4803 -26.9389)
(-1.007e-15 -44.3825 -51.5051)
(-8.9241e-16 -32.4167 -59.7043)
(7.35797e-20 151.481 272.117)
(2.74882e-19 156.709 271.808)
(3.65491e-19 142.229 259.464)
(3.94865e-19 134.708 245.194)
(4.87444e-19 124.01 235.463)
(1.37988e-18 118.02 226.572)
(9.34232e-19 108.217 216.522)
(-1.53413e-19 96.3948 199.455)
(-1.6816e-18 80.2537 177.703)
(-3.57223e-18 63.7343 153.69)
(-5.78789e-18 46.7638 130.135)
(-7.2847e-18 30.0348 106.334)
(-3.86392e-18 12.7838 82.0016)
(1.32981e-17 -4.10365 57.4524)
(4.53898e-17 -19.3056 34.344)
(4.91774e-17 -30.7175 14.4193)
(-5.80841e-17 -35.2468 0.925778)
(-2.75044e-16 -27.1952 1.17571)
(-4.28724e-16 -5.16261 20.224)
(-2.70328e-16 13.451 38.8342)
(-3.1312e-20 134.992 242.268)
(-9.78251e-20 146.329 255.207)
(-1.05513e-19 129.896 237.004)
(-9.58603e-20 120.119 218.197)
(-3.82758e-20 108.28 207.866)
(7.65345e-20 100.923 196.645)
(3.66121e-19 89.2549 185.588)
(7.67093e-19 77.0029 168.756)
(8.6909e-19 61.2818 148.419)
(-4.75317e-19 45.7691 125.574)
(-3.31011e-18 30.1167 102.752)
(-2.15589e-18 15.5838 80.2727)
(1.26468e-17 2.80475 59.9163)
(3.95339e-17 -5.63011 44.947)
(5.49851e-17 -6.10334 41.085)
(3.62822e-17 5.27714 54.3865)
(-3.56549e-18 28.6982 85.2191)
(-2.23069e-17 57.4785 122.265)
(1.98212e-18 78.7635 142.806)
(2.87228e-17 59.745 113.744)
(7.88425e-21 128.535 228.564)
(2.09065e-20 150.112 253.935)
(2.04895e-20 130.592 230.744)
(1.25416e-20 122.727 205.859)
(-2.04423e-20 109.904 193.81)
(-7.60191e-20 104.497 177.315)
(-1.27141e-19 93.5053 165.029)
(-1.12456e-19 86.2023 149.809)
(3.41902e-20 76.209 135.289)
(6.54323e-20 68.015 119.011)
(-6.01436e-19 59.8295 103.517)
(-1.65257e-18 54.025 89.6028)
(-1.11706e-18 50.5975 79.3706)
(2.81264e-18 50.5371 74.2754)
(8.83095e-18 54.6019 76.0909)
(1.24325e-17 62.1134 85.5878)
(1.11363e-17 71.8356 100.12)
(7.3795e-18 77.5588 114.725)
(4.21949e-18 76.1335 116.678)
(-4.59904e-20 53.725 92.1329)
(-1.4453e-21 129.91 231.888)
(-3.47352e-21 158.908 264.299)
(-2.84729e-21 135.525 238.672)
(-9.8126e-23 130.09 213.294)
(9.29602e-21 117.445 201.65)
(2.31919e-20 113.796 185.291)
(3.03209e-20 104.528 173.144)
(2.00463e-20 99.3409 159.206)
(-2.44071e-20 92.7377 147.535)
(-6.71138e-20 87.8869 136.055)
(2.57858e-20 83.1503 125.32)
(3.08489e-19 78.9574 114.702)
(4.78615e-19 74.8964 104.108)
(1.74664e-20 70.8243 93.7926)
(-1.39167e-18 66.9034 84.6672)
(-3.73901e-18 63.454 78.2817)
(-6.66235e-18 60.3997 75.4341)
(-9.07677e-18 56.8641 74.3093)
(-9.0224e-18 48.1965 68.7424)
(-4.76239e-18 28.1375 40.6543)
(1.91893e-22 134.868 241.494)
(3.53619e-22 164.635 270.053)
(5.01043e-23 137.508 243.78)
(-6.5336e-22 134.973 219.279)
(-2.58167e-21 121.469 208.567)
(-4.8942e-21 118.718 192.255)
(-4.68372e-21 109.43 180.581)
(-5.30377e-22 104.316 166.632)
(9.49324e-21 97.3115 154.402)
(2.00475e-20 91.48 141.992)
(1.17984e-20 85.487 130.361)
(-2.87694e-20 79.8353 119.174)
(-6.71391e-20 74.2662 108.477)
(-2.0691e-20 68.8173 98.0664)
(1.78781e-19 63.0661 87.7886)
(5.67099e-19 57.0287 77.1421)
(1.21363e-18 49.377 66.0008)
(2.23569e-18 40.8116 53.0146)
(3.42481e-18 26.0336 35.9229)
(4.60371e-18 7.2057 1.49921)
(-9.05509e-24 142.388 258.418)
(4.63966e-23 168.236 271.657)
(1.6437e-22 138.6 249.518)
(3.24803e-22 140.562 226.118)
(6.00172e-22 124.922 216.611)
(7.11832e-22 123.772 199.429)
(1.06482e-22 113.421 188.226)
(-1.31478e-21 109.115 174.024)
(-3.47994e-21 101.92 162.12)
(-5.14172e-21 96.4728 149.47)
(-3.9462e-21 90.4305 137.361)
(5.38075e-22 84.5893 124.966)
(3.31011e-21 78.2866 112.359)
(-4.28244e-21 71.4984 99.1751)
(-2.68071e-20 63.4957 85.343)
(-6.43621e-20 54.376 70.1043)
(-1.29852e-19 42.5903 53.3003)
(-2.51878e-19 29.9001 33.183)
(-6.30153e-19 8.39147 7.52394)
(1.1733e-18 -7.0918 -29.1991)
(-5.71134e-24 149.17 276.75)
(-4.46685e-23 169.565 270.457)
(-8.56633e-23 139.507 256.283)
(-1.28423e-22 145.679 233.944)
(-1.55144e-22 127.809 225.819)
(-6.1845e-23 128.631 208.512)
(2.57117e-22 117.409 198.385)
(7.9551e-22 114.442 184.619)
(1.43585e-21 107.427 173.764)
(1.80888e-21 103.108 161.934)
(1.55767e-21 97.7646 150.638)
(8.96794e-22 92.5092 138.19)
(6.02164e-22 85.7897 124.041)
(1.08838e-21 77.0461 106.872)
(1.3002e-21 65.0446 86.5663)
(-5.10987e-22 50.8383 63.5512)
(-4.86051e-21 33.6642 39.6882)
(-4.34435e-21 17.399 13.92)
(-1.22934e-19 -9.72743 -16.1246)
(-5.17091e-20 -20.5226 -53.8793)
(3.45946e-24 150.464 286.204)
(2.03196e-23 166.381 264.916)
(3.17571e-23 137.248 258.65)
(3.08161e-23 144.932 237.136)
(5.19599e-24 125.487 230.229)
(-4.32714e-23 126.795 213.738)
(-6.24288e-23 114.71 205)
(-4.34391e-24 112.135 192.492)
(9.18239e-23 104.66 183.317)
(8.51898e-23 100.589 172.934)
(-2.8715e-22 94.6537 162.767)
(-1.25806e-21 88.2095 149.83)
(-2.80637e-21 78.1725 132.07)
(-5.29591e-21 63.2653 106.489)
(-1.02981e-20 43.316 74.519)
(-1.88587e-20 23.0926 42.1705)
(-2.39753e-20 2.22194 11.9652)
(2.91582e-20 -8.48547 -14.5635)
(-3.81102e-20 -32.4139 -38.8168)
(-2.2945e-19 -31.4985 -68.7985)
(-1.26213e-24 143.678 279.148)
(-6.63989e-24 160.321 255.443)
(-1.23634e-23 130.41 251.041)
(-2.49826e-23 136.886 230.374)
(-3.2019e-23 118.426 223.194)
(1.10786e-23 117.128 208.291)
(1.46733e-22 106.162 199.253)
(3.61243e-22 101.526 188.033)
(5.18947e-22 94.0862 179.062)
(3.77808e-22 88.4993 169.425)
(-2.19289e-22 81.3695 159.099)
(-1.06774e-21 72.5974 144.89)
(-2.0525e-21 59.2887 123.37)
(-5.37644e-21 40.8347 92.4418)
(-1.64584e-20 21.2206 58.8567)
(-4.10338e-20 6.81875 33.3036)
(-8.31448e-20 -5.89962 9.25387)
(-1.25672e-19 -22.3856 -21.1495)
(-1.44591e-19 -31.9013 -37.3219)
(-1.39514e-19 -19.2446 -24.2223)
(6.95493e-25 131.622 269.022)
(2.98786e-24 155.044 243.621)
(2.39048e-24 119.386 241.465)
(-6.19184e-24 126.271 221.481)
(-2.0666e-23 107.979 214.182)
(-1.23974e-23 104.85 200.466)
(6.29839e-23 94.6146 191.009)
(2.07631e-22 88.7495 180.248)
(3.3449e-22 81.4777 170.889)
(2.90731e-22 75.2863 161.248)
(-2.77831e-24 68.4168 151.036)
(-3.80049e-22 60.645 138.39)
(-7.71644e-22 51.0354 121.663)
(-2.78716e-21 40.1549 100.566)
(-1.16256e-20 29.988 77.7171)
(-3.48682e-20 21.9677 56.5353)
(-7.69973e-20 14.9502 36.8721)
(-1.33742e-19 7.5374 14.8936)
(-2.04087e-19 -2.82502 -11.2332)
(-2.14827e-19 6.68562 16.8935)
(-1.59375e-25 107.884 253.183)
(-9.03997e-25 147.775 223.6)
(-2.03248e-24 107.138 226.521)
(-5.11822e-24 113.357 211.058)
(-8.25879e-24 97.2209 205.217)
(-2.90445e-25 92.4404 195.39)
(3.9197e-23 83.4081 187.729)
(1.25207e-22 77.0834 179.479)
(2.49962e-22 70.3739 171.827)
(3.76575e-22 64.5643 164.21)
(4.27349e-22 59.0389 156.743)
(2.85427e-22 54.0696 149.211)
(-8.30344e-23 49.6319 141.422)
(-4.14801e-22 45.7334 132.781)
(-3.32567e-22 42.0864 122.348)
(-3.78356e-22 38.0635 109.045)
(-3.33641e-21 32.2592 91.369)
(-1.41736e-20 23.3852 65.8384)
(-3.4845e-20 10.8319 28.1816)
(-4.67631e-20 -3.21355 -12.7551)
(1.39579e-25 35.8224 158.08)
(3.25346e-25 78.5388 130.532)
(1.40133e-25 52.841 138.578)
(-9.12881e-25 52.8467 134.392)
(-3.27365e-24 44.4768 134.275)
(-5.40577e-24 40.2443 132.519)
(-1.38708e-24 35.3914 131.133)
(1.82376e-23 31.6677 129.417)
(5.99891e-23 28.4029 127.653)
(1.20582e-22 25.8476 125.798)
(1.91581e-22 23.8942 123.879)
(2.76577e-22 22.5334 121.808)
(3.97958e-22 21.6873 119.464)
(5.7685e-22 21.3379 116.763)
(8.2169e-22 21.685 113.65)
(1.16564e-21 22.8117 110.229)
(1.67429e-21 24.4014 106.671)
(2.25497e-21 28.527 100.629)
(2.32165e-21 31.5101 88.4294)
(1.05583e-21 6.99352 65.0766)
(-5.12485e-26 -35.8458 158.125)
(1.12691e-25 -78.5458 130.588)
(2.84146e-25 -52.8488 138.636)
(-2.1023e-26 -52.8463 134.456)
(-1.48232e-24 -44.4739 134.344)
(-3.49259e-24 -40.2386 132.592)
(-2.34479e-24 -35.3861 131.213)
(9.04692e-24 -31.6647 129.504)
(4.02525e-23 -28.4037 127.748)
(1.02905e-22 -25.8499 125.892)
(2.08293e-22 -23.8902 123.957)
(3.56321e-22 -22.5112 121.848)
(5.18096e-22 -21.6381 119.453)
(6.32429e-22 -21.2643 116.711)
(6.41396e-22 -21.6004 113.585)
(5.69526e-22 -22.7316 110.189)
(5.83577e-22 -24.3369 106.688)
(8.56997e-22 -28.471 100.712)
(1.14277e-21 -31.4175 88.545)
(6.61264e-22 -6.97717 65.0307)
(3.27156e-25 -107.896 253.268)
(2.27665e-25 -147.869 223.647)
(-2.94879e-25 -107.194 226.56)
(-3.00078e-24 -113.468 211.058)
(-7.88005e-24 -97.3354 205.194)
(-7.32329e-24 -92.5914 195.332)
(1.56087e-23 -83.5854 187.641)
(7.70592e-23 -77.2975 179.356)
(1.73444e-22 -70.6267 171.669)
(2.6965e-22 -64.866 164.021)
(3.1436e-22 -59.411 156.55)
(2.79655e-22 -54.5448 149.061)
(1.78086e-22 -50.229 141.349)
(6.05413e-23 -46.4256 132.786)
(6.88078e-23 -42.8061 122.431)
(2.5532e-22 -38.733 109.216)
(-5.56542e-22 -32.7802 91.6007)
(-6.11643e-21 -23.6216 66.0179)
(-1.95586e-20 -10.7061 27.8147)
(-3.14076e-20 3.81035 -14.6884)
(-1.32588e-24 -131.499 268.819)
(8.21915e-26 -154.999 243.288)
(3.66958e-25 -119.258 241.139)
(-3.50983e-24 -126.229 221.048)
(-8.58733e-24 -107.885 213.717)
(2.52986e-24 -104.791 199.919)
(5.75484e-23 -94.5337 190.409)
(1.67075e-22 -88.6753 179.576)
(2.91232e-22 -81.3839 170.146)
(3.15758e-22 -75.1743 160.415)
(5.25269e-24 -68.2766 150.107)
(-1.0292e-21 -60.522 137.408)
(-3.05535e-21 -51.1064 120.869)
(-5.67383e-21 -40.761 100.465)
(-8.52218e-21 -31.3789 78.8198)
(-1.41703e-20 -24.0982 58.9445)
(-2.82748e-20 -17.7092 40.3292)
(-4.61487e-20 -10.5834 19.0505)
(-1.85991e-20 0.902987 -9.37817)
(-5.58358e-20 -7.99493 16.9188)
(6.05379e-24 -143.398 278.552)
(1.86344e-24 -159.945 254.966)
(-5.00245e-24 -130.063 250.474)
(-1.68699e-23 -136.425 229.842)
(-3.20029e-23 -117.981 222.639)
(-2.9676e-23 -116.569 207.762)
(2.55338e-23 -105.588 198.71)
(1.4431e-22 -100.836 187.519)
(2.65913e-22 -93.3304 178.539)
(2.42291e-22 -87.5885 168.883)
(-2.36053e-22 -80.264 158.423)