/*--------------------------------*- C++ -*----------------------------------*\
| =========                 |                                                 |
| \\      /  F ield         | OpenFOAM: The Open Source CFD Toolbox           |
|  \\    /   O peration     | Version:  4.1                                   |
|   \\  /    A nd           | Web:      www.OpenFOAM.org                      |
|    \\/     M anipulation  |                                                 |
\*---------------------------------------------------------------------------*/
FoamFile
{
    version     2.0;
    format      ascii;
    class       volScalarField;
    location    "18";
    object      p;
}
// * * * * * * * * * * * * * * * * * * * * * * * * * * * * * * * * * * * * * //

dimensions      [0 2 -2 0 0 0 0];

internalField   nonuniform List<scalar> 
1280
(
0.279853
0.366157
0.751258
0.720869
0.916546
1.02375
0.791178
0.738545
0.387709
0.0454809
-0.718446
-0.852282
-1.84922
-3.80872
-3.26086
-6.34546
-8.87326
-12.6093
-10.6352
-33.6215
-11.681
9.65572
19.7291
17.2031
14.1127
22.3644
11.2091
9.67831
6.47541
6.71522
5.96395
5.02652
4.10938
2.47632
0.837187
-1.35584
-2.02204
-1.21324
2.48029
7.4063
-19.4591
-7.47672
-1.56374
2.91279
13.9938
14.5287
14.1913
14.4837
13.4608
13.848
14.0259
12.5168
14.0065
13.6454
13.7405
13.8272
2.78692
-2.57153
-9.11976
-10.9643
3.16721
-2.74386
-5.41939
-3.77889
-2.30225
0.0275487
1.39303
2.97882
4.11992
5.22074
6.07321
6.75507
7.0744
-7.87488
28.0137
22.4349
20.8675
21.8693
8.81229
-10.7698
-24.5041
-9.65551
-11.3644
-10.6224
-7.30859
-5.3464
-7.23902
-4.39133
-3.34159
-4.65573
-2.78105
-2.19914
-2.69693
-2.58832
-1.59762
-0.651371
-1.81924
-0.811402
-0.392404
-0.877395
-1.30873
-3.45073
-2.66898
-1.01185
-0.946616
0.748851
0.485962
0.492748
0.32001
0.234422
0.363095
0.311662
0.229559
-0.469583
-0.801369
-0.936875
-0.622807
-0.535134
0.092848
0.236817
0.732372
1.12814
0.588585
-2.26551
1.03058
1.03936
1.14672
0.919958
0.994495
1.83906
2.26533
2.21592
-0.887123
-2.94272
-3.09708
-1.742
-1.22333
-0.474922
-0.894671
-2.50868
-0.12969
-0.0247443
-3.04655
1.05147
1.22583
1.25481
0.825851
1.06215
3.07664
4.99209
4.39376
-2.13269
-6.18219
-5.76932
-2.81535
-1.94608
-0.760857
-0.0674662
-1.39757
0.5189
-2.17903
-3.54347
0.785043
1.32583
1.20557
0.74881
1.62976
4.77266
8.201
6.75518
-2.95381
-8.45066
-8.08173
-3.70448
-2.2182
-0.600722
-0.118991
-1.5127
-0.201926
-4.45571
-4.25428
0.299242
1.25217
0.948059
0.645802
2.16382
6.41901
11.5814
9.04988
-2.95244
-9.49624
-9.33085
-4.84646
-3.03209
-0.915431
0.0885124
-0.763624
-0.264815
-5.94194
-4.70066
-0.303273
1.04872
0.779494
0.853331
2.83011
8.13244
14.9139
11.3549
-1.95409
-9.42827
-9.12223
-5.04839
-2.03154
-0.131795
-0.0383696
-0.302466
-0.195884
-6.36036
-4.51198
-1.00168
0.870389
0.703149
0.595981
2.99687
9.85754
16.6525
12.0264
-1.11918
-8.7699
-9.60719
-6.04526
-3.55471
-0.733879
-0.0471981
0.463778
0.377223
-5.81275
-3.80766
-1.32634
1.33745
1.08262
0.706926
2.75757
9.59021
15.5621
10.101
-1.63894
-6.85395
-10.1955
-5.91025
2.31755
3.33179
0.00345732
1.35667
1.35148
-4.78295
-3.04486
-1.24148
2.47777
1.69439
0.471875
2.25548
9.17701
12.9674
5.44275
-3.70868
-1.07301
-1.14701
-0.334515
12.1729
18.6431
0.18771
2.58908
3.07067
-3.00921
-2.24269
-1.07668
3.23182
2.29365
0.507402
1.54415
7.64911
8.40765
-1.20652
-7.28146
2.622
5.10137
9.27962
27.6279
13.6979
0.397482
4.11935
5.75517
0.138961
-0.695611
-1.02965
2.63187
1.49897
-0.241273
1.69992
8.27276
3.65606
-9.42209
-13.068
6.66041
11.1335
10.8325
25.7449
15.516
0.595826
5.97323
9.51225
4.66997
2.00672
-0.497741
1.38646
-1.12913
-2.85686
0.975814
9.84753
-0.571293
-14.2834
-14.2542
12.0726
18.3984
11.8546
14.4756
22.1207
0.75776
7.99466
14.1758
10.0205
5.58137
0.677621
-0.322829
-4.92109
-6.31307
0.313075
12.8212
-2.31858
-14.0556
-11.2699
8.11083
16.7351
8.98054
-4.22862
-5.16453
0.846796
9.69538
18.842
14.7347
9.18113
2.4332
-1.42946
-7.22541
-8.15131
-1.36279
12.192
-0.751229
-11.5306
-7.43113
5.88344
13.4295
3.22621
-10.1392
-8.38713
0.839411
10.4358
21.9391
17.5376
11.7594
3.8269
-2.14829
-8.44835
-9.22774
-2.42121
9.91038
2.11811
-7.63811
-3.09571
5.14126
10.4002
4.48079
-3.6986
-4.25992
0.75542
10.0553
22.5093
17.6689
12.4249
4.05123
-2.98486
-8.57881
-9.47427
-3.07199
6.23198
1.97258
-4.83841
-1.16079
4.60065
8.46033
4.14242
-1.83918
-2.80561
0.619058
8.71473
20.4652
15.5294
11.0649
3.01745
-3.72033
-7.02195
-8.34493
-2.19503
3.94032
1.59597
-3.28525
-0.181022
3.91425
6.58234
3.45999
-0.92864
-1.31636
0.444017
6.71598
16.4055
11.8804
8.44179
1.71049
-3.91704
-5.01478
-6.39599
-1.46205
2.22573
1.23376
-2.08255
0.226889
3.00227
4.68825
2.57696
-0.373695
-0.605609
0.141239
4.87803
12.0586
7.13045
4.93171
0.248171
-2.81725
-3.36799
-4.46914
-0.932324
1.31795
0.845106
-1.33008
0.22741
2.1021
3.0901
1.6677
-0.0269774
-0.163895
-0.110431
1.80386
4.20558
1.57664
1.93752
0.18913
-1.40319
-1.90378
-2.55809
-0.919141
0.0291868
-0.123677
-0.977671
-0.162465
0.781307
1.15187
0.565806
-0.0322454
0.0340863
165.166
162.506
160.345
160.039
156.636
154.061
150.015
148.266
144.421
141.839
138.976
136.528
134.45
132.46
131.251
129.575
129.239
127.382
128.01
126.293
107.004
106.88
108.11
109.702
109.622
110.236
109.529
109.816
109.719
109.86
109.974
110.07
110.266
110.324
110.75
110.734
111.642
111.371
112.926
112.844
126.885
125.597
127.043
127.212
127.127
126.553
126.403
125.569
125.261
124.577
124.288
123.806
123.663
123.268
123.389
122.949
123.588
122.955
124.29
123.975
112.844
112.302
114.242
114.401
115.185
114.542
114.892
114.25
114.247
113.845
113.831
113.62
113.784
113.635
114.063
113.872
114.671
114.372
115.789
116.04
117.06
116.761
118.724
118.577
120.005
119.063
119.625
119.034
118.914
118.615
118.459
118.268
118.336
118.124
118.498
118.226
118.927
118.634
119.967
120.109
106.569
107.006
108.9
108.741
111.196
109.973
110.724
110.786
110.625
110.884
110.743
110.937
111.139
111.23
111.836
111.864
112.875
113.01
114.67
115.212
99.4322
100.182
101.452
101.083
104.643
102.584
103.254
104.084
103.633
104.408
104.086
104.493
104.635
104.861
105.498
105.731
106.929
107.375
109.374
110.049
88.6354
89.883
90.0395
89.6427
94.4256
90.907
91.3037
93.0746
92.0917
93.2722
92.7368
93.1612
93.2311
93.4268
94.0405
94.3859
95.7176
96.3995
98.7772
99.5332
81.8889
83.7676
82.1997
81.8837
87.8184
82.8264
82.6862
85.2189
83.7
84.8274
84.1319
84.2238
84.1788
84.0763
84.5143
84.6933
85.8733
86.4433
88.866
89.4448
77.8225
80.4046
76.7727
76.709
84.2554
77.5622
76.4432
80.1268
78.2153
78.8095
78.1036
77.5872
77.4131
76.7759
76.866
76.5201
77.093
77.1067
78.7476
79.3851
78.9846
81.6901
77.1419
77.0478
84.1216
78.9348
77.5318
80.8143
79.9637
79.4718
79.2572
78.1937
78.134
76.979
76.9234
75.6248
75.7518
74.4592
75.3884
75.5091
78.3281
80.5304
81.904
81.8089
83.4845
77.0309
80.2948
78.5296
80.7107
79.2904
80.6697
79.7153
80.4525
79.7175
80.2143
79.6241
80.4814
80.3867
81.1438
80.7837
55.1004
56.7324
58.8589
57.9098
61.7478
60.6136
64.6685
64.3141
67.3683
67.2945
69.4575
70.046
71.5146
72.3195
73.3836
74.1222
74.9601
75.9902
76.5983
78.5328
43.2741
42.2711
43.0584
40.3189
41.8592
38.2843
41.4875
40.1986
41.374
40.152
40.7265
41.1533
42.3805
43.6654
45.1501
47.0563
48.2373
50.025
51.0404
52.7546
64.8116
63.45
64.6848
62.0081
63.5358
61.271
62.0045
60.6167
60.5636
59.754
59.2867
58.6549
58.1679
57.7435
57.6376
57.9919
58.2629
57.6779
56.4932
56.3177
67.7013
66.9557
69.1525
66.439
69.2309
67.7275
69.3765
69.2943
70.279
70.8284
71.6414
72.3596
73.1099
73.8259
74.4781
74.9869
75.2604
75.3283
74.9984
74.5499
73.0618
70.9321
73.6247
68.2421
69.5804
66.2646
65.7179
63.9406
63.0401
62.067
61.4601
61.0315
60.8135
60.8034
60.9668
61.4179
62.0856
63.0378
64.5778
65.9359
62.3934
56.5561
64.6303
57.9474
60.0885
56.9316
55.8428
53.5236
51.5098
49.2558
47.0433
44.8139
42.6479
40.5908
38.7686
37.4973
36.7726
37.6506
38.8251
40.7564
78.6956
56.5987
64.6312
53.4401
50.6169
43.881
38.8687
33.5568
28.9791
24.9236
21.6301
19.1462
17.5566
16.9438
17.4601
18.9776
21.4001
25.3234
28.486
30.6628
770.349
687.604
638.504
582.044
532.934
485.53
441.49
399.919
360.843
323.982
289.179
256.241
224.956
195.253
167.189
139.949
113.842
93.4753
70.057
32.6322
736.509
654.328
605.576
549.561
500.854
453.855
410.182
368.926
330.075
293.322
258.484
225.368
193.783
163.682
135.142
107.409
80.4321
57.7901
32.4548
-3.0025
53.3154
31.8784
40.2506
29.5508
27.1759
20.8327
16.1831
11.1408
6.7623
2.80152
-0.482097
-3.01486
-4.62234
-5.11499
-4.31528
-2.485
0.00388596
3.82185
7.97521
8.96273
47.0077
40.5413
48.5031
41.5101
43.5796
40.192
38.9891
36.4425
34.1948
31.6339
29.0901
26.5732
24.2962
22.5514
21.4419
20.6464
20.0999
19.5914
18.5628
17.1262
30.0318
24.8756
26.1241
18.5864
17.7691
12.1724
9.2243
4.89712
1.35875
-2.40205
-5.81703
-9.05402
-11.7736
-13.8575
-15.1993
-16.1339
-16.9816
-17.7837
-19.0999
-18.6689
-11.3562
-14.5482
-13.1717
-17.3896
-16.1426
-19.2277
-19.2714
-21.131
-22.0532
-23.2772
-24.2828
-25.1438
-25.8798
-25.9873
-25.8168
-25.208
-24.6469
-23.7917
-23.2068
-20.842
-10.6361
-9.95805
-6.9368
-8.48292
-5.06377
-6.11415
-3.64571
-3.84392
-2.16002
-1.28729
0.216296
0.985704
2.81571
3.28602
1.96816
3.48004
3.74133
4.85678
4.82001
6.52588
30.1877
32.5771
35.0255
34.966
38.6732
38.9059
42.0996
43.2598
45.9298
48.0645
49.9486
53.6868
52.8327
40.9404
-8.09977
-8.05207
-6.16541
-5.61395
-6.22969
-3.98538
26.1575
26.9527
27.0607
25.3814
26.114
23.7519
23.6546
21.4793
20.5285
18.9661
16.7534
15.2972
13.032
10.0521
8.80507
6.16827
7.56205
11.9235
4.66671
9.50267
27.0832
28.3181
29.0518
28.4154
30.1222
28.9272
30.2646
29.5333
30.3958
30.3813
31.0985
31.1911
32.2571
31.9081
33.1917
33.6043
35.9251
38.7749
37.571
39.6825
41.1405
42.9534
43.8248
43.8977
45.4413
45.2889
46.4946
46.3476
47.2261
47.2954
48.3161
48.6298
49.7032
50.107
51.0019
51.5925
52.395
53.6707
54.8066
57.3313
51.3435
53.3415
53.8585
54.0009
55.2516
54.9078
55.9298
55.6292
56.28
56.2365
56.8423
57.1179
57.7341
58.1879
58.8861
59.4684
60.4654
61.3381
63.1739
64.4803
61.481
63.7158
64.3034
64.926
66.0165
65.8765
66.8218
66.6791
67.2298
67.2394
67.5826
67.7251
68.0298
68.1678
68.6332
68.8138
69.78
70.2739
72.3843
73.0213
71.3714
73.1664
73.8451
74.8908
75.3932
75.3448
75.7472
75.5249
75.8071
75.5589
75.6763
75.3441
75.3989
74.8582
75.028
74.3836
74.9994
74.7084
76.411
76.5332
75.8978
76.3959
76.9024
77.7983
77.2967
77.0802
76.5933
75.9647
75.6496
74.882
74.6326
73.7368
73.5974
72.4627
72.5267
71.2029
71.5933
70.4933
71.7275
71.4187
69.4653
69.025
69.5866
70.4406
69.3909
69.2241
68.3969
67.6975
67.1826
66.2752
66.0203
65.0811
65.0957
64.1614
64.4486
63.4393
64.1213
63.0243
64.5182
64.5067
69.0555
68.2572
69.1197
70.2121
69.261
69.3245
68.6377
68.1586
67.7925
67.1737
67.1628
66.6442
67.0034
66.6048
67.2927
66.9545
68.0067
67.5785
69.3034
69.6471
65.2585
64.9326
66.1203
67.7746
67.1295
67.6586
67.2988
67.3407
67.3108
67.2384
67.5583
67.5825
68.2599
68.3599
69.3892
69.4652
70.8825
70.9561
72.8029
73.4256
81.8378
81.2086
82.1196
83.6964
82.8099
83.1933
82.52
82.4316
82.0689
81.8562
81.8349
81.6667
81.9732
81.8197
82.4517
82.2135
83.2778
82.9175
84.4669
84.4961
69.3422
69.818
70.5683
72.872
72.2705
73.005
72.5713
72.9728
72.8435
73.0861
73.2461
73.4076
73.8392
73.9104
74.6225
74.5598
75.6849
75.4505
77.0953
77.3049
120.383
119.143
117.353
118.331
114.935
113.095
110.082
107.752
104.882
102.648
100.492
98.5787
97.0748
95.4535
94.6045
93.1397
93.1097
91.5104
92.3223
91.1783
)
;

boundaryField
{
    outletWall
    {
        type            fixedValue;
        value           uniform 0;
    }
    fineWalls
    {
        type            zeroGradient;
    }
    fineFrontAndBack
    {
        type            zeroGradient;
    }
    fineplugLeft
    {
        type            cyclicAMI;
        value           nonuniform List<scalar> 
20
(
102.516
102.904
101.663
102.986
103.389
105.168
106.464
108.382
110.227
112.374
114.814
116.832
120.548
134.232
127.722
128.131
131.472
132.222
131.936
129.796
)
;
    }
    fineplugRight
    {
        type            cyclicAMI;
        value           nonuniform List<scalar> 
20
(
73.5761
73.309
72.1244
73.732
74.0513
75.6891
76.6414
78.2556
79.6869
81.4377
83.3326
85.2563
87.6164
96.6694
96.0787
96.4348
98.8381
98.256
97.077
94.1524
)
;
    }
    inletOutletLeft
    {
        type            cyclicAMI;
        value           nonuniform List<scalar> 
20
(
102.516
102.904
101.663
102.986
103.389
105.168
106.464
108.382
110.227
112.374
114.814
116.832
120.548
134.232
127.722
128.131
131.472
132.222
131.936
129.796
)
;
    }
    inletLeft
    {
        type            zeroGradient;
    }
    inletWallsLeft
    {
        type            zeroGradient;
    }
    inletFacesLeft
    {
        type            zeroGradient;
    }
    inletOutletRight
    {
        type            cyclicAMI;
        value           nonuniform List<scalar> 
20
(
73.5761
73.309
72.1244
73.732
74.0513
75.6891
76.6414
78.2556
79.6869
81.4377
83.3326
85.2563
87.6164
96.6694
96.0787
96.4348
98.8381
98.256
97.077
94.1524
)
;
    }
    inletRight
    {
        type            zeroGradient;
    }
    inletWallsRight
    {
        type            zeroGradient;
    }
    inletFacesRight
    {
        type            zeroGradient;
    }
}


// ************************************************************************* //
