/*--------------------------------*- C++ -*----------------------------------*\
| =========                 |                                                 |
| \\      /  F ield         | OpenFOAM: The Open Source CFD Toolbox           |
|  \\    /   O peration     | Version:  4.1                                   |
|   \\  /    A nd           | Web:      www.OpenFOAM.org                      |
|    \\/     M anipulation  |                                                 |
\*---------------------------------------------------------------------------*/
FoamFile
{
    version     2.0;
    format      ascii;
    class       surfaceScalarField;
    location    "18";
    object      phi;
}
// * * * * * * * * * * * * * * * * * * * * * * * * * * * * * * * * * * * * * //

dimensions      [0 3 -1 0 0 0 0];

internalField   nonuniform List<scalar> 
2360
(
-2717.76
-843.105
-1874.65
-843.105
-843.105
1231.35
-2074.46
1231.35
1231.35
1231.35
3401.92
-2170.57
3401.92
3401.92
5841.33
-2439.4
5841.33
5841.32
8773.4
-2932.08
8773.4
8773.4
13859.4
-5086.02
13859.4
13859.4
15127.5
16861
18369.6
19651.5
20843.8
22135.5
16886.6
6411.4
17950.5
18931
19853.5
20721.2
21534.5
22277.4
22941.5
23518.5
24037.2
24560
25202.6
26006.7
26948
11691.5
15256.5
11691.5
11691.5
11691.5
-377.844
12069.3
-377.843
-377.845
-377.844
-319.489
-58.3559
-319.488
-319.49
-471.002
151.514
-471.006
-471.004
-471.007
-12234.7
11763.7
-12234.7
-12234.7
-12234.7
-26944.2
14709.5
-26053.4
-25315.8
-24752.8
-24227.8
-23646
-22996.5
-22277.8
-21501.7
-20665.9
-19773.1
-18820.5
-17809.4
-16732.6
-20624.9
5038.47
-19404.6
-18104.6
-16725
-15234.3
-13529.4
-12482.6
-12482.6
-12482.6
-9570.61
-2912.02
-9570.61
-9570.61
-7882.8
-1687.81
-7882.8
-7882.8
-6532.93
-1349.87
-6532.93
-6532.93
-5506.35
-1026.59
-5506.35
-5506.35
-5506.35
-4737.78
-768.566
-4737.78
-4737.78
-4108.7
-629.084
-10926.2
-11080.2
-7697.1
-12742.9
-3566.01
-9009.46
-1161.57
1565.58
-1248.1
8211.7
-1454.02
5550.9
-1391.44
3593.29
-1288.34
3613.92
-1071.62
3880.78
-748.108
3482.24
-363.135
1675.71
101.679
-1284.09
818.098
-5194.33
1557.58
-5987.5
1729.21
-1332.33
1497.84
3617.69
1216.69
4762.7
1075.84
5699.16
4706.69
-12062.1
-12175.1
-9308.39
-15496.7
-5081.72
-13236.1
-1496.44
-2019.7
-1275.86
7991.12
-1665.9
5940.94
-1535.56
3462.94
-1447.92
3526.28
-1225.08
3657.94
-894.835
3151.99
-512.294
1293.17
24.8535
-1821.24
1094.1
-6263.58
2092.56
-6985.96
2139.65
-1379.41
1638.5
4118.84
1204.52
5196.68
1025.36
5878.32
4963.48
-9766.87
-13144.8
-8116.5
-17147.1
-5839.39
-15513.2
-2281.78
-5577.3
-1367.89
7077.23
-2033.95
6607
-1906.67
3335.67
-1792.01
3411.62
-1570.67
3436.6
-1246.76
2828.08
-863.027
909.431
-135.342
-2548.92
1055.91
-7454.83
1871.76
-7801.81
1919.98
-1427.63
1620.48
4418.34
1210.92
5606.24
1011.6
6077.64
4948.49
-7192.81
-14026.3
-6208.57
-18131.3
-5415.55
-16306.3
-3096.37
-7896.48
-1889.14
5870.01
-2413.97
7131.82
-2521.37
3443.07
-2331.62
3221.87
-2145.94
3250.93
-1816.32
2498.46
-1403.1
496.212
-580.495
-3371.53
193.229
-8228.56
407.658
-8016.24
726.266
-1746.24
1055.68
4088.93
977.397
5684.51
1014.68
6040.36
4613.3
-5669.31
-14538.2
-5215.41
-18585.2
-5062.42
-16459.2
-3917.01
-9041.9
-2642
4594.99
-2889.77
7379.59
-3353.59
3906.89
-3050.51
2918.79
-2724.12
2924.55
-2326.16
2100.49
-1989.72
159.773
-1614.68
-3746.56
-1867.45
-7975.8
-2148.66
-7735.02
-1026.86
-2868.04
165.027
2897.04
592.339
5257.2
917.66
5715.03
3843.15
-5263.98
-14725.5
-5046.35
-18802.8
-5014.31
-16491.3
-4587.51
-9468.69
-3494.63
3502.11
-3560.05
7445.01
-4133.53
4480.37
-3604.25
2389.51
-2861.42
2181.72
-2447.01
1686.08
-2660.62
373.382
-3581.77
-2825.4
-5120.29
-6437.28
-5516.62
-7338.68
-3381.88
-5002.78
-1026.98
542.14
-264.181
4494.4
867.456
4583.39
1798.59
-5086.41
-14746.9
-4988.42
-18900.8
-5104.22
-16375.5
-5212.87
-9360.03
-4396.61
2685.85
-4102.61
7151
-4161.1
4538.87
-3283.07
1511.47
-2618.85
1517.5
-3188.37
2255.59
-4639.77
1824.79
-6820.48
-644.688
-9310.67
-3947.09
-9949.76
-6699.6
-7369.76
-7582.77
-3105.55
-3722.07
-269.183
1658.04
1093.27
3220.94
7930.33
-4885.1
-14678.9
-4920.4
-18865.5
-5261.23
-16034.7
-5761.49
-8859.77
-5149.32
2073.68
-4405.85
6407.53
-3899.18
4032.2
-3511.44
1123.73
-3904.45
1910.51
-5088.06
3439.21
-6976.08
3712.8
-10206.1
2585.29
-13478.1
-675.073
-14493.8
-5683.91
-12821
-9255.58
-9339.62
-7203.41
-6909.63
-771.95
-9011.62
5322.93
13628.2
-4756.79
-14527.6
-4979.14
-18643.2
-5577.3
-15436.5
-6281.91
-8155.16
-5764.42
1556.19
-5061.08
5704.19
-5236.26
4207.37
-6188.81
2076.28
-6805.2
2526.9
-7268.31
3902.31
-9085.39
5529.88
-12794
6293.94
-16071.6
2602.47
-17020.3
-4735.17
-16423
-9852.92
-15677.4
-7949.04
-15144.2
-1305.13
-14583.1
4761.9
10808.7
-4737.91
-14311
-5175.49
-18205.6
-6110.97
-14501
-7066.09
-7200.04
-6833.3
1323.4
-6933.43
5804.33
-8637.99
5911.93
-10837.9
4276.21
-11447.2
3136.14
-10957.3
3412.47
-11364.2
5936.81
-13542.3
8472.01
-15624.3
4684.45
-15984.5
-4374.98
-15355.1
-10482.3
-14599
-8705.21
-13381.8
-2522.27
-9913.89
1293.96
1046.35
-4798.24
-14041.4
-5460.97
-17542.9
-6835.19
-13126.8
-8262.13
-5773.09
-8601.67
1662.94
-9484.75
6687.41
-11894.5
8321.67
-14412.1
6793.81
-15070.5
3794.53
-14201.8
2543.81
-13396.2
5131.15
-13677.2
8753.02
-13437.3
4444.62
-12098
-5714.29
-12443.7
-10136.7
-14550.9
-6597.98
-13887.6
-3185.56
-9423.55
-3170.08
-8435.55
-4850.71
-13729.1
-5694.38
-16699.2
-7530.18
-11291
-9531.73
-3771.54
-10409.8
2541
-11570.4
7848.05
-13727.1
10478.4
-15783.3
8850.03
-16259
4270.17
-15278.4
1563.18
-13612.2
3464.99
-11627.8
6768.65
-7935.95
752.742
-4501.96
-9148.28
-5552.36
-9086.26
-11485
-665.344
-15707.8
1037.29
-15637.8
-3240.14
-12004
-4793.97
-13389.1
-5694.32
-15798.8
-7864.54
-9120.8
-10418.8
-1217.24
-11668
3790.15
-12672.9
8853
-13923.4
11728.9
-14660.5
9587.14
-14079.4
3688.99
-12582.4
66.2124
-10409.7
1292.25
-6925.16
3284.16
-2350.69
-3821.73
-356.848
-11142.1
-555.931
-8887.18
-3016.02
1794.74
-7598.71
5619.98
-11559.5
720.644
-8306.98
-4597.21
-13043.9
-5368.08
-15028
-7522.19
-6966.7
-10481
1741.59
-12070.1
5379.25
-12846.2
9629.06
-13192.4
12075.1
-12745.1
9139.87
-11231.7
2175.55
-8695.52
-2469.94
-4993.14
-2410.13
-604.578
-1104.41
1686.83
-6113.13
776.296
-10231.6
-531.128
-7579.75
559.176
704.437
1517.87
4661.28
562.525
1675.99
-1333.06
-4291.4
-12716.6
-4788.79
-14530.6
-6417.67
-5337.81
-9474.82
4798.73
-11487.1
7391.51
-12151.1
10293.1
-11822
11746
-10413.4
7731.19
-8213.58
-24.2341
-5554.07
-5129.45
-2054.86
-5909.34
1386.52
-4545.79
2048.58
-6775.19
583.05
-8766.06
-482.713
-6513.99
962.865
-741.141
2897.14
2727.01
4287.77
285.36
-2131.3
-3930.09
-12429.3
-4160.01
-14300.7
-4991.21
-4506.61
-7717.65
7525.16
-10026.2
9700.1
-10638.9
10905.8
-9735.79
10842.9
-7287.87
5283.27
-4439.95
-2872.15
-2309.08
-7260.33
-607.842
-7610.57
1057.11
-6210.74
1370.33
-7088.41
477.561
-7873.29
-77.6932
-5958.74
997.07
-1815.9
2405.29
1318.79
2991.38
-300.73
-2072
-3553.79
-12204.9
-3594.81
-14259.6
-3712.64
-4388.79
-5780.48
9593.01
-8059.02
11978.6
-8584.92
11431.7
-7189.37
9447.35
-4088.97
2182.88
-1511.14
-5449.99
-417.639
-8353.83
187.796
-8216.01
1061.19
-7084.14
1314.95
-7342.16
857.241
-7415.59
602.762
-5704.26
1355.89
-2569.03
2319.82
354.858
2636.14
-617.048
-1875.26
-3192.61
-12056.8
-3102.13
-14350.1
-2740.11
-4750.8
-4069.75
10922.6
-6043.42
13952.3
-6433.6
11821.8
-4758.07
7771.81
-1880.57
-694.619
-289.832
-7040.73
53.5357
-8697.2
417.408
-8579.88
1068.84
-7735.57
1288.5
-7561.82
1125.84
-7252.93
1108.55
-5686.96
1672.3
-3132.78
2360.27
-333.115
2494.94
-751.719
-1550.89
-2884.37
-11974.9
-2721.31
-14513.2
-2059.44
-5412.67
-2740.4
11603.6
-4413.41
15625.3
-4784.49
12192.9
-2997.32
5984.64
-817.069
-2874.87
-58.3161
-7799.49
164.939
-8920.45
579.907
-8994.85
1084.43
-8240.09
1291.64
-7769.04
1341.91
-7303.19
1455.72
-5800.77
1848.43
-3525.5
2256.4
-741.083
2315.41
-810.723
-1309.94
-2658.02
-2502.65
-1808.58
-1710.2
-2678.32
-3078.75
-1850.02
-493.458
10.2421
328.925
676.026
1039.48
1322.43
1513.59
1648.39
1863.48
2072.99
2179.41
204.478
-1472.55
423.641
-1952.65
564.325
-1649.26
660.922
-1378.54
756.369
-1287.7
870.739
-1406.07
841.675
-1133.5
813.262
-1035.41
782.355
-949.593
758.154
-898.343
731.872
-841.351
699.891
-781.366
656.759
-699.725
601.748
-609.163
528.483
-503.64
439.548
-429.838
329.845
-413.102
206.177
-518.916
99.9037
-697.815
-841.369
33.9882
-1506.53
32.2929
-1950.95
46.9162
-1663.88
62.2237
-1393.84
72.5907
-1298.07
83.4543
-1416.93
64.0253
-1114.07
49.4562
-1020.84
54.6154
-954.749
73.4455
-917.169
98.2982
-866.2
126.249
-809.314
158.063
-731.535
195.451
-646.547
227.243
-535.429
239.464
-442.056
209.575
-383.212
139.495
-448.834
74.8184
-633.135
-766.55
-20.1962
-1486.33
0.796435
-1971.94
50.7898
-1713.86
79.401
-1422.45
108.284
-1326.95
114.97
-1423.61
182.584
-1181.68
207.805
-1046.06
221.648
-968.589
224.884
-920.401
220.436
-861.748
212.951
-801.825
205.404
-723.984
205.513
-646.653
205.84
-535.753
193.771
-429.984
160.363
-349.802
122.324
-410.793
85.185
-595.993
-681.365
-4.47633
-1481.85
-0.851084
-1975.56
30.1384
-1744.85
42.0213
-1434.33
77.3344
-1362.26
89.2058
-1435.48
130.546
-1223.01
148.127
-1063.64
150.227
-970.687
150.834
-921.005
148.266
-859.178
144.35
-797.906
136.28
-715.912
132.321
-642.691
139.101
-542.53
153.011
-443.892
158.614
-355.403
141.895
-394.071
92.4427
-546.538
-588.922
9.84327
-1491.69
5.49009
-1971.2
34.6137
-1773.97
49.6002
-1449.31
82.8827
-1395.53
106.475
-1459.07
139.101
-1255.64
165.478
-1090.01
180.915
-986.119
191.899
-931.985
197.785
-865.06
198.624
-798.741
194.036
-711.321
184.814
-633.466
186.22
-543.933
202.761
-460.43
218.341
-370.981
197.795
-373.524
121.877
-470.616
-467.046
49.1773
-1540.86
43.64
-1965.66
74.9489
-1805.27
94.3512
-1468.71
132.361
-1433.54
169.938
-1496.65
188.06
-1273.76
218.449
-1120.4
248.002
-1015.67
271.868
-955.848
286.559
-879.75
291.476
-803.655
289.268
-709.112
274.665
-618.861
255.813
-525.079
243.199
-447.814
239.219
-367.001
207.866
-342.17
119.897
-382.646
-347.148
71.9372
-1612.79
61.5927
-1955.31
90.2736
-1833.95
108.312
-1486.74
145.095
-1470.32
183.387
-1534.94
186.452
-1276.82
219.743
-1153.69
261.024
-1056.95
296.63
-991.451
320.915
-904.033
333.461
-816.199
339.828
-715.477
334.279
-613.31
315.238
-506.037
284.932
-417.507
253.094
-335.162
198.646
-287.721
104.827
-288.826
-242.322
67.4843
-1680.28
61.4715
-1949.3
88.1937
-1860.67
110.839
-1509.39
141.509
-1500.99
167.625
-1561.05
162.201
-1271.4
193.641
-1185.13
233.483
-1096.79
266.054
-1024.02
291.34
-929.318
306.09
-830.948
317.666
-727.053
317.699
-613.342
299.771
-488.109
260.346
-378.082
207.793
-282.609
139.224
-219.151
59.8614
-209.462
-182.46
36.7754
-1717.04
41.3945
-1953.91
56.2461
-1875.51
84.0301
-1537.16
100.648
-1517.6
101.917
-1562.31
104.031
-1273.51
126.974
-1208.07
155.198
-1125.01
173.307
-1042.13
192.197
-948.204
202.599
-841.345
214.148
-738.598
213.539
-612.73
191.783
-466.35
151.539
-337.835
104.956
-236.025
53.1318
-167.325
2.36263
-158.69
-180.098
10.1733
-1727.21
25.6696
-1969.4
19.2311
-1869.07
60.0422
-1577.97
67.4917
-1525.05
35.0084
-1529.83
54.4368
-1292.93
60.8693
-1214.5
74.205
-1138.35
75.8195
-1043.74
83.6481
-956.032
85.7137
-843.409
90.8744
-743.759
88.8983
-610.753
70.1914
-447.643
43.6262
-311.269
18.0493
-210.448
-5.96745
-143.309
-42.8518
-121.806
-222.949
17.7881
-1745
34.0918
-1985.7
0.179378
-1835.16
46.7745
-1624.56
62.55
-1540.82
-0.74987
-1466.52
30.0705
-1323.75
26.9557
-1211.38
27.6946
-1139.08
20.0405
-1036.08
15.935
-951.927
11.824
-839.296
9.68035
-741.616
14.3983
-615.47
26.9613
-460.207
49.5433
-333.852
67.6595
-228.565
54.4332
-130.084
25.7757
-93.1518
-197.174
62.4411
-1807.44
57.5852
-1980.85
37.8989
-1815.47
68.5748
-1655.23
92.3082
-1564.56
54.5934
-1428.81
68.689
-1337.85
76.6181
-1219.31
80.1102
-1142.58
84.4063
-1040.38
84.5112
-952.034
89.354
-844.14
90.4287
-742.693
103.133
-628.176
141.557
-498.634
191.941
-384.24
233.301
-269.928
229.927
-126.714
175.479
-38.7112
-21.6952
112.612
-1920.05
84.3361
-1952.57
107.135
-1838.27
123.833
-1671.93
154.399
-1595.12
182.508
-1456.92
209.873
-1365.22
250.964
-1260.4
291.622
-1183.24
336.778
-1085.53
374.556
-989.811
408.825
-878.409
426.554
-760.423
436.312
-637.934
453.354
-515.677
458.205
-389.092
436.737
-248.462
390.122
-80.1012
266.286
85.1215
244.591
78.8103
-1998.87
25.8676
-1899.63
29.6343
-1842.04
32.8534
-1675.15
50.9512
-1613.22
74.1739
-1480.14
105.809
-1396.85
140.806
-1295.4
177.634
-1220.07
218.522
-1126.43
251.947
-1023.24
267.211
-893.675
257.521
-750.735
234.944
-615.358
209.88
-490.616
172.463
-351.676
103.164
-179.165
-19.6119
42.6707
-82.7347
148.237
161.856
-8.75474
-1990.11
-72.7956
-1835.59
-110.398
-1804.44
-158.823
-1626.73
-202.494
-1569.56
-247.873
-1434.77
-285.883
-1358.85
-326.455
-1254.83
-374.106
-1172.42
-420.11
-1080.43
-463.021
-980.333
-497.823
-858.878
-518.791
-729.772
-525.326
-608.827
-529.245
-486.698
-537.534
-343.389
-531.706
-184.994
-437.394
-51.6455
-326.753
37.5887
-164.897
-2.70969
-1987.41
-22.1161
-1816.19
-34.3149
-1792.25
-53.4955
-1607.56
-73.0164
-1550.04
-93.7047
-1414.09
-121.202
-1331.36
-150.411
-1225.63
-185.544
-1137.3
-220.892
-1045.08
-245.431
-955.8
-241.484
-862.832
-203.907
-767.355
-149.296
-663.445
-95.0391
-540.963
-46.4345
-392.002
-2.85817
-228.588
68.5811
-123.117
77.7758
28.3658
-87.1215
2.15737
-1989.57
-17.321
-1796.72
-21.4707
-1788.1
-13.2167
-1615.82
-5.89284
-1557.37
18.2045
-1438.19
43.3732
-1356.53
78.6419
-1260.9
117.594
-1176.25
163.946
-1091.44
219.022
-1010.88
286.147
-929.962
362.702
-843.914
443.134
-743.88
521.414
-619.247
583.075
-453.666
593.359
-238.876
413.87
56.366
314.766
127.463
227.644
-132.703
-1856.87
-286.445
-1642.98
-406.373
-1668.18
-482.93
-1539.26
-549.564
-1490.74
-581.62
-1406.14
-598.398
-1339.76
-591.685
-1267.62
-567.879
-1200.06
-526.655
-1132.67
-471.214
-1066.32
-403.03
-998.15
-322.581
-924.367
-229.346
-837.119
-126.5
-722.098
-22.5315
-557.641
71.3614
-332.782
116.193
11.5193
45.3142
198.333
272.959
-207.466
-1649.41
-457.586
-1392.86
-720.452
-1405.31
-939.783
-1319.93
-1149.55
-1280.98
-1325.3
-1230.39
-1477.22
-1187.84
-1600.28
-1144.56
-1697.58
-1102.76
-1769.27
-1060.99
-1816.38
-1019.21
-1837.88
-976.656
-1830.23
-932.012
-1785.54
-881.813
-1688.92
-818.722
-1514.56
-732.004
-1239.55
-607.787
-795.757
-432.278
-363.115
-234.311
-90.1569
-674.409
-1092.27
-1522.59
-1867.52
-2173.5
-2428.89
-2641.73
-2811.29
-2939.05
-3025.04
-3069.25
-3070.91
-3027.92
-2934.74
-2778.46
-2535.47
-2168.25
-1625.53
-884.843
-663.434
1638.43
-1068.29
1379.86
-1485.3
1392.01
-1815.34
1305.04
-2105.29
1264.95
-2343.29
1213
-2537.87
1169.58
-2689.02
1126.16
-2799.48
1085.45
-2870.32
1045.84
-2902.06
1006.74
-2893.39
966.335
-2840.46
922.071
-2735.79
870.332
-2569.28
808.485
-2332.12
737.844
-2015.35
658.23
-1588.61
548.262
-970.183
356.569
4.81711
-193.959
1832.39
-439.398
1625.3
-695.978
1648.59
-915.786
1524.85
-1128.38
1477.55
-1312.47
1397.09
-1477.19
1334.29
-1618.69
1267.66
-1739.11
1205.87
-1835.81
1142.54
-1901.95
1072.88
-1921.68
986.059
-1871.07
871.465
-1728.51
727.769
-1491.45
571.427
-1180.76
427.148
-822.394
299.87
-434.039
159.907
-53.361
-24.1074
-48.5439
-180.574
2012.97
-384.57
1829.3
-554.865
1818.89
-694.032
1664.01
-823.641
1607.16
-927.977
1501.42
-1022.11
1428.43
-1101.59
1347.14
-1171.63
1275.91
-1228.68
1199.59
-1266.36
1110.56
-1267.01
986.705
-1200.77
805.227
-1033.77
560.775
-775.702
313.357
-504.838
156.285
-262.08
57.1125
-30.3746
-71.7967
113.18
-167.66
64.6365
-50.9741
2063.94
-136.164
1914.48
-198.603
1881.33
-249.599
1715.01
-300.613
1658.17
-337.969
1538.78
-374.522
1464.98
-401.226
1373.84
-422.491
1297.17
-437.753
1214.85
-451.524
1124.34
-467.8
1002.98
-492.112
829.54
-536.083
604.747
-589.51
366.785
-629.372
196.147
-635.579
63.321
-573.567
-133.808
-439.429
-301.797
-374.793
57.9799
2005.96
12.0378
1960.43
13.5762
1879.79
23.0829
1705.5
38.1196
1643.13
65.8496
1511.05
106.43
1424.4
153.471
1326.8
204.597
1246.05
262.353
1157.1
324.875
1061.81
371.415
956.44
373.357
827.598
374.163
603.941
285.405
455.544
139.246
342.308
19.7769
182.795
-80.1782
-33.849
-145.111
-236.862
-519.904
119.684
1886.28
119.509
1960.6
165.223
1834.07
215.254
1655.47
270.642
1587.74
335.101
1446.59
409.473
1350.03
488.297
1247.97
564.652
1169.69
648.044
1073.7
732.419
977.439
819.788
869.069
864.671
782.716
877.424
591.188
750.09
582.879
613.812
478.587
406.552
390.057
173.782
198.926
36.1636
-99.2393
-483.74
53.7868
1832.49
46.0324
1968.35
54.0482
1826.05
58.2328
1651.28
67.7586
1578.22
82.4932
1431.85
88.646
1343.87
97.3793
1239.24
87.9936
1179.07
71.6314
1090.06
31.5392
1017.53
3.829
896.777
-18.0636
804.609
-95.3413
668.466
-247.342
734.882
-263.217
494.466
-181.8
308.648
-45.2657
62.4043
-65.7805
-78.7143
-549.521
37.3153
1795.17
51.1778
1954.49
70.5566
1806.67
86.7493
1635.09
104.091
1560.87
106.94
1429
102.446
1348.37
122.265
1219.42
156.996
1144.34
205.636
1041.42
260.638
962.524
317.98
839.432
375.397
747.193
419.495
624.367
441.555
712.823
398.515
537.507
419.028
288.136
309.162
172.272
133.07
97.3823
-416.451
50.7715
1744.4
58.8642
1946.39
78.2781
1787.26
91.8442
1621.52
103.694
1549.02
98.8175
1433.88
90.2926
1356.89
91.6337
1218.07
117.046
1118.93
157.342
1001.12
218.255
901.611
284.75
772.936
372.924
659.02
452.663
544.628
568.814
596.672
582.359
523.963
494.945
375.549
374.367
292.852
316.131
155.62
-100.32
87.4265
1656.97
74.8602
1958.96
84.7436
1777.37
95.0001
1611.26
108.942
1535.08
115.293
1427.52
123.84
1348.35
123.912
1218
136.473
1106.37
154.679
982.914
188.187
868.103
217.665
743.457
249.682
627.003
274.384
519.925
405.7
465.356
502.143
427.52
485.613
392.079
411.281
367.184
261.028
305.873
160.707
126.208
1530.76
113.787
1971.38
117.369
1773.79
129.533
1599.1
153.578
1511.04
180.628
1400.47
215.191
1313.78
236.969
1196.22
257.039
1086.3
270.305
969.648
279.596
858.812
272.763
750.29
251.693
648.073
240.371
531.247
291.714
414.013
335.545
383.689
336.594
391.031
294.919
408.859
176.746
424.046
337.453
112.044
1418.72
111.078
1972.35
117.154
1767.72
128.943
1587.31
155.404
1484.58
194.472
1361.41
244.982
1263.27
289.111
1152.09
321.848
1053.56
338.578
952.918
337.678
859.711
322.628
765.34
307.234
663.468
304.891
533.589
297.111
421.793
283.84
396.96
281.881
392.99
252.138
438.602
158.605
517.578
496.059
42.8587
1375.86
43.183
1972.02
56.9855
1753.91
61.0389
1583.26
72.7462
1472.87
91.867
1342.28
122.09
1233.05
156.355
1117.83
179.174
1030.74
187.422
944.67
185.948
861.185
191.188
760.1
210.792
643.863
221.627
522.755
215.831
427.589
224.927
387.864
250.249
367.668
236.317
452.535
155.469
598.426
651.527
-23.4494
1399.31
-29.4955
1978.07
-12.3181
1736.74
-18.8266
1589.76
-25.8714
1479.91
-38.4821
1354.9
-47.2525
1241.82
-48.1875
1118.76
-46.534
1029.09
-44.0888
942.224
-31.8904
848.987
-2.89573
731.106
29.5232
611.444
41.0495
511.228
60.839
407.799
105.53
343.172
153.735
319.463
167.622
438.648
116.637
649.411
768.164
-39.649
1438.96
-40.8148
1979.23
-13.6693
1709.59
-17.5072
1593.6
-23.8582
1486.26
-38.2477
1369.28
-56.3999
1259.97
-75.9
1138.26
-83.295
1036.48
-79.2104
938.14
-62.0054
831.782
-42.9039
712.004
-34.4805
603.02
-38.1026
514.85
-34.8291
404.526
-19.7598
328.103
6.80937
292.894
36.1714
409.286
30.429
655.154
798.593
-19.0077
1457.97
-14.4884
1974.71
17.4361
1677.67
25.9069
1585.13
35.6761
1476.49
43.9505
1361.01
49.2542
1254.67
43.1291
1144.39
41.7757
1037.84
45.5138
934.402
50.9408
826.355
43.3473
719.597
24.1953
622.172
0.446063
538.6
-30.32
435.292
-56.8095
354.592
-62.4314
298.516
-44.2008
391.055
-26.1535
637.106
772.44
27.2448
1430.72
38.9892
1962.97
69.5204
1647.13
89.8924
1564.76
107.724
1458.66
126.241
1342.49
146.148
1234.76
155.4
1135.14
160.423
1032.81
160.733
934.091
153.452
833.636
132.426
740.623
103.559
651.039
70.5435
571.614
27.1872
478.648
-12.9179
394.697
-36.899
322.497
-37.4892
391.645
-26.5156
626.132
745.924
53.1007
1377.62
70.0453
1946.02
108.15
1609.03
141.382
1531.53
169.799
1430.25
200.456
1311.84
234.184
1201.03
258.677
1110.64
272.622
1018.87
274.461
932.252
265.079
843.017
244.496
761.206
216.733
678.802
182.489
605.858
141.073
520.063
97.8214
437.949
57.1895
363.129
34.5568
414.278
19.4522
641.237
765.376
119.781
1257.84
124.41
1941.4
111.837
1621.6
130.7
1512.66
146.588
1414.36
155.575
1302.85
174.83
1181.78
194.565
1090.91
208.073
1005.36
212.299
928.026
207.292
848.024
194.696
773.802
176.25
697.248
154.978
627.13
131.918
543.124
107.072
462.795
76.6657
393.537
50.5313
440.414
36.3842
655.386
801.76
211.039
447.608
578.452
711.549
825.935
908.475
944.1
958.144
952.442
927.809
883.067
821.04
742.17
650.66
544.306
425.308
293.84
171.217
89.0265
)
;

boundaryField
{
    outletWall
    {
        type            calculated;
        value           nonuniform List<scalar> 
60
(
-4108.7
-4259.93
-5558.31
-4481.55
-3386.32
1160.69
5248.02
4477.91
819.275
-2060.68
-3805.75
-4097.5
-3717.01
-3655.87
-5344.98
-8125.17
-3970.03
4878.37
9513.86
9815.26
2645.89
2802.5
3044.47
3329.45
3642.72
3964.1
4252.02
4454.02
4538.39
4528.65
4521.33
4605.48
4817.11
5107.81
5451.3
6181.18
8074.3
10736.6
13157
12191.2
2717.76
-1005.18
-917.148
-950.594
-3740.59
-5935.57
-7494.36
-8051.98
-8603.54
-9341.95
-9239.14
-8303.18
-4231.43
4755.9
12593.4
16593.4
11505.2
-6106.74
-14668.5
-11962.8
)
;
    }
    fineWalls
    {
        type            calculated;
        value           uniform 0;
    }
    fineFrontAndBack
    {
        type            calculated;
        value           nonuniform List<scalar> 
960
(
-1.43332e-13
-2.26253e-13
1.12864e-14
-5.29562e-13
-2.21944e-12
-3.53198e-13
-4.15525e-13
-1.72835e-13
-2.5327e-12
-6.21056e-13
-6.38098e-13
-2.91515e-12
-4.71179e-13
-3.42007e-13
-4.52453e-12
-1.06773e-12
-1.07208e-12
-3.74019e-12
-6.17917e-13
-1.09867e-12
-3.80777e-14
-4.11028e-13
-4.88844e-13
-6.05286e-13
-6.70336e-13
-7.3211e-13
-1.00309e-11
-7.4701e-13
-7.34495e-13
-7.29292e-13
-7.37378e-13
-7.48089e-13
-7.70033e-13
-8.03319e-13
-8.48706e-13
-9.18228e-13
-9.49264e-13
-9.42169e-13
-8.39796e-13
-7.56665e-13
-1.19526e-11
-1.06838e-12
-9.74209e-13
-1.1093e-12
-1.3666e-12
-1.85773e-12
-2.4346e-13
1.50415e-11
2.32123e-10
1.56258e-11
7.82334e-12
4.23189e-11
9.46324e-12
1.14741e-11
7.46664e-12
9.17961e-12
9.02541e-13
1.08877e-12
1.18687e-12
1.19182e-11
6.79176e-13
9.62495e-13
1.10663e-12
1.05052e-12
9.48031e-13
8.60468e-13
7.95977e-13
7.46523e-13
6.98879e-13
6.45454e-13
5.96957e-13
5.38788e-13
4.87147e-13
-3.50043e-12
1.76763e-13
-5.4071e-14
-1.25182e-13
-2.39808e-13
-3.71474e-13
-6.84791e-13
-3.52445e-12
-3.89341e-12
-2.19178e-11
-3.40397e-12
-3.71502e-12
-1.96838e-11
-2.66631e-12
-3.08226e-12
-1.56113e-11
-1.87772e-12
-2.2352e-12
-1.06022e-11
-7.06809e-13
-8.61583e-13
-8.13823e-13
-5.13757e-12
-1.39187e-13
-2.66084e-13
-2.09643e-12
3.47748e-13
-2.61748e-11
-1.64083e-11
-1.25452e-11
-9.36117e-12
-1.27722e-11
-2.03008e-11
-2.0894e-11
-1.85468e-11
-1.67554e-11
-1.832e-11
-2.12957e-11
-3.47273e-11
-4.94747e-11
-4.38269e-11
-4.45156e-11
-5.26547e-11
-5.41824e-11
-4.78018e-11
-4.3552e-11
-1.22029e-11
-7.07536e-12
-9.00196e-12
-1.22252e-11
-1.3392e-11
-2.06737e-11
-1.89982e-11
-1.40426e-11
-9.55514e-12
-1.11352e-11
-1.72441e-11
-3.26557e-11
-4.24057e-11
-3.17243e-11
-3.502e-11
-4.82031e-11
-5.4406e-11
-4.89478e-11
-4.44356e-11
5.08292e-12
5.86101e-12
-6.62053e-13
-8.1294e-12
-1.49784e-11
-1.93675e-11
-1.45013e-11
-4.44945e-12
2.74052e-12
-2.76805e-12
-1.30855e-11
-2.45209e-11
-3.13183e-11
-2.70816e-11
-3.28844e-11
-4.09512e-11
-4.99498e-11
-4.9087e-11
-4.58101e-11
1.34941e-11
8.28675e-12
3.82385e-12
-1.63205e-12
-1.50682e-11
-1.65886e-11
-8.59192e-13
1.37459e-11
7.00417e-12
-1.29987e-11
-1.77379e-11
-2.34494e-11
-2.31229e-11
-2.85636e-11
-3.41548e-11
-3.71803e-11
-4.46003e-11
-4.66112e-11
-4.63786e-11
9.72851e-12
4.69832e-13
3.76667e-12
2.69387e-12
-9.23981e-12
-7.93319e-12
1.37181e-11
1.82315e-11
-1.62633e-11
-4.20622e-11
-3.8904e-11
-2.54089e-11
-2.62326e-11
-2.89063e-11
-3.47784e-11
-4.1254e-11
-3.87259e-11
-4.23286e-11
-4.38657e-11
8.3253e-13
-6.9197e-12
5.38498e-12
3.91194e-12
-3.40439e-13
1.25727e-11
1.55195e-11
-2.46871e-11
-8.32293e-11
-1.00492e-10
-7.731e-11
-3.90129e-11
-3.05134e-11
-2.29671e-11
-3.18162e-11
-4.86528e-11
-4.50009e-11
-3.81398e-11
-4.32739e-11
-1.28469e-12
-6.15389e-12
1.06151e-11
3.64418e-12
-7.60498e-12
2.51662e-11
-1.52811e-12
-9.45335e-11
-1.45482e-10
-1.20959e-10
-7.98004e-11
-4.74839e-11
-2.4744e-11
-1.43388e-11
-1.90044e-11
-3.21303e-11
-4.75889e-11
-4.54843e-11
-4.36648e-11
5.40881e-12
-9.20793e-13
1.83302e-11
5.47695e-12
-4.6948e-11
-1.69729e-11
-4.72192e-11
-1.22481e-10
-1.13784e-10
-8.87915e-11
-7.1427e-11
-4.1703e-11
-1.31916e-11
-4.2366e-12
-5.92904e-12
-1.25493e-11
-2.35107e-11
-2.33936e-11
-6.2175e-12
1.5496e-11
3.74452e-12
2.59311e-11
1.63428e-11
-8.71156e-11
-1.02026e-10
-1.01325e-10
-9.62623e-11
-6.81129e-11
-6.84714e-11
-6.22713e-11
-3.28786e-11
-8.30655e-12
-2.87481e-12
-4.37475e-12
-2.10256e-12
-2.90869e-12
-2.89339e-12
5.47439e-12
2.41766e-11
6.80558e-12
3.17993e-11
3.67932e-11
-7.44029e-11
-1.33122e-10
-1.01808e-10
-4.32062e-11
-2.90034e-11
-4.29204e-11
-4.66813e-11
-3.095e-11
-6.97891e-12
-1.07278e-11
-1.29915e-11
-4.36261e-12
6.86835e-12
1.0225e-11
2.15928e-11
2.79546e-11
6.8198e-12
3.2131e-11
5.61881e-11
-1.63852e-11
-7.61364e-11
-4.64675e-11
3.77223e-12
1.51955e-11
4.35547e-12
-7.88513e-12
-1.18629e-11
-8.99117e-12
-1.22437e-11
-1.03141e-11
-1.25775e-11
-4.00605e-12
2.68442e-11
1.03422e-10
2.35246e-11
2.84692e-12
2.3652e-11
5.84935e-11
2.72842e-11
-1.20625e-11
-2.06941e-12
2.2161e-11
2.2659e-11
1.44593e-11
1.00214e-11
3.2568e-12
-1.41778e-12
-1.10646e-12
2.20345e-13
-5.31205e-12
-1.77426e-11
-1.94865e-11
-1.57612e-11
1.52489e-11
3.12227e-13
1.48055e-11
4.8798e-11
3.93996e-11
1.99307e-11
2.04584e-11
2.75563e-11
2.16094e-11
1.31543e-11
9.99165e-12
8.58961e-12
3.33938e-12
-4.13191e-12
-5.24515e-12
8.94717e-13
-7.03409e-12
-9.62594e-12
-1.32553e-11
5.47705e-12
-5.53019e-13
9.9517e-12
4.32691e-11
4.11917e-11
2.92092e-11
2.89638e-11
2.94188e-11
1.99225e-11
6.0175e-12
-2.98353e-12
3.2491e-12
-3.50242e-12
-8.46603e-12
-3.63956e-12
1.65182e-12
9.06264e-13
2.22423e-13
-8.15319e-13
-5.66279e-12
-3.44965e-12
4.08179e-12
3.68948e-11
4.3023e-11
3.2809e-11
3.04634e-11
2.74643e-11
1.72409e-11
1.09342e-12
-1.57725e-11
-1.89398e-11
-2.14663e-11
-1.11429e-11
-1.29543e-12
4.35116e-12
6.26411e-12
3.29274e-12
4.82784e-12
-1.51928e-11
-7.61569e-12
-3.58907e-12
2.39024e-11
4.48578e-11
3.65805e-11
2.94954e-11
2.14494e-11
6.2761e-12
-1.01768e-11
-2.22275e-11
-2.087e-11
-1.48921e-11
-5.19397e-12
-1.16142e-12
1.84055e-12
8.74488e-13
-1.52456e-12
-2.18802e-12
-1.96253e-11
-1.03357e-11
-9.45459e-12
7.63853e-12
4.14811e-11
4.11667e-11
2.88193e-11
1.14644e-11
-1.38293e-11
-2.68542e-11
-2.80971e-11
-1.90121e-11
-1.00371e-11
-2.78013e-12
-7.55448e-13
-1.33161e-12
-1.37501e-12
-1.69192e-12
-1.77748e-12
-1.90538e-11
-1.16781e-11
-1.06874e-11
-6.09091e-12
3.01724e-11
4.14196e-11
2.7834e-11
2.89884e-12
-2.67545e-11
-3.68836e-11
-2.92693e-11
-1.60373e-11
-7.58956e-12
-2.28569e-12
-1.09557e-12
-1.31312e-12
-1.70895e-12
-2.06451e-12
-2.30231e-12
-1.63549e-11
-1.07743e-11
-9.05621e-12
-1.35497e-11
1.40738e-11
3.37551e-11
2.06472e-11
-1.22394e-11
-3.60432e-11
-3.72392e-11
-2.77756e-11
-1.34835e-11
-5.59193e-12
-1.69216e-12
-1.02384e-12
-1.40846e-12
-1.86917e-12
-2.11937e-12
-2.82515e-12
-1.46733e-11
-1.00024e-11
-6.77879e-12
-1.409e-11
-4.93324e-12
8.83665e-12
-1.47374e-12
-2.63628e-11
-3.54686e-11
-3.51261e-11
-2.5884e-11
-1.25098e-11
-4.36552e-12
-1.50534e-12
-1.1024e-12
-1.49274e-12
-1.93853e-12
-2.0716e-12
-3.41661e-12
1.43332e-13
2.26253e-13
-1.12864e-14
5.29562e-13
2.21944e-12
3.53198e-13
4.15525e-13
1.72835e-13
2.5327e-12
6.21056e-13
6.38098e-13
2.91515e-12
4.71179e-13
3.42007e-13
4.52453e-12
1.06773e-12
1.07208e-12
3.74019e-12
6.17917e-13
1.09867e-12
3.80777e-14
4.11028e-13
4.88844e-13
6.05286e-13
6.70336e-13
7.3211e-13
1.00309e-11
7.4701e-13
7.34495e-13
7.29292e-13
7.37378e-13
7.48089e-13
7.70033e-13
8.03319e-13
8.48706e-13
9.18228e-13
9.49264e-13
9.42169e-13
8.39796e-13
7.56665e-13
1.19526e-11
1.06838e-12
9.74209e-13
1.1093e-12
1.3666e-12
1.85773e-12
2.4346e-13
-1.50415e-11
-2.32123e-10
-1.56258e-11
-7.82334e-12
-4.23189e-11
-9.46324e-12
-1.14741e-11
-7.46664e-12
-9.17961e-12
-9.02541e-13
-1.08877e-12
-1.18687e-12
-1.19182e-11
-6.79176e-13
-9.62495e-13
-1.10663e-12
-1.05052e-12
-9.48031e-13
-8.60468e-13
-7.95977e-13
-7.46523e-13
-6.98879e-13
-6.45454e-13
-5.96957e-13
-5.38788e-13
-4.87147e-13
3.50043e-12
-1.76763e-13
5.4071e-14
1.25182e-13
2.39808e-13
3.71474e-13
6.84791e-13
3.52445e-12
3.89341e-12
2.19178e-11
3.40397e-12
3.71502e-12
1.96838e-11
2.66631e-12
3.08226e-12
1.56113e-11
1.87772e-12
2.2352e-12
1.06022e-11
7.06809e-13
8.61583e-13
8.13823e-13
5.13757e-12
1.39187e-13
2.66084e-13
2.09643e-12
-3.47748e-13
2.61748e-11
1.64083e-11
1.25452e-11
9.36117e-12
1.27722e-11
2.03008e-11
2.0894e-11
1.85468e-11
1.67554e-11
1.832e-11
2.12957e-11
3.47273e-11
4.94747e-11
4.38269e-11
4.45156e-11
5.26547e-11
5.41824e-11
4.78018e-11
4.3552e-11
1.22029e-11
7.07536e-12
9.00196e-12
1.22252e-11
1.3392e-11
2.06737e-11
1.89982e-11
1.40426e-11
9.55514e-12
1.11352e-11
1.72441e-11
3.26557e-11
4.24057e-11
3.17243e-11
3.502e-11
4.82031e-11
5.4406e-11
4.89478e-11
4.44356e-11
-5.08292e-12
-5.86101e-12
6.62053e-13
8.1294e-12
1.49784e-11
1.93675e-11
1.45013e-11
4.44945e-12
-2.74052e-12
2.76805e-12
1.30855e-11
2.45209e-11
3.13183e-11
2.70816e-11
3.28844e-11
4.09512e-11
4.99498e-11
4.9087e-11
4.58101e-11
-1.34941e-11
-8.28675e-12
-3.82385e-12
1.63205e-12
1.50682e-11
1.65886e-11
8.59192e-13
-1.37459e-11
-7.00417e-12
1.29987e-11
1.77379e-11
2.34494e-11
2.31229e-11
2.85636e-11
3.41548e-11
3.71803e-11
4.46003e-11
4.66112e-11
4.63786e-11
-9.72851e-12
-4.69832e-13
-3.76667e-12
-2.69387e-12
9.23981e-12
7.93319e-12
-1.37181e-11
-1.82315e-11
1.62633e-11
4.20622e-11
3.8904e-11
2.54089e-11
2.62326e-11
2.89063e-11
3.47784e-11
4.1254e-11
3.87259e-11
4.23286e-11
4.38657e-11
-8.3253e-13
6.9197e-12
-5.38498e-12
-3.91194e-12
3.40439e-13
-1.25727e-11
-1.55195e-11
2.46871e-11
8.32293e-11
1.00492e-10
7.731e-11
3.90129e-11
3.05134e-11