/*--------------------------------*- C++ -*----------------------------------*\
| =========                 |                                                 |
| \\      /  F ield         | OpenFOAM: The Open Source CFD Toolbox           |
|  \\    /   O peration     | Version:  4.1                                   |
|   \\  /    A nd           | Web:      www.OpenFOAM.org                      |
|    \\/     M anipulation  |                                                 |
\*---------------------------------------------------------------------------*/
FoamFile
{
    version     2.0;
    format      ascii;
    class       volVectorField;
    location    "10";
    object      U;
}
// * * * * * * * * * * * * * * * * * * * * * * * * * * * * * * * * * * * * * //

dimensions      [0 1 -1 0 0 0 0];

internalField   nonuniform List<vector> 
1280
(
(1.67215e-18 6.24684 0.211121)
(2.49277e-17 8.14322 -1.68329)
(-3.76207e-17 7.58304 -1.59982)
(-9.40158e-17 7.83306 -1.49772)
(-1.40723e-16 10.3653 -4.28874)
(-1.02771e-16 9.01437 -3.70272)
(6.18306e-17 10.4837 -3.82526)
(-7.87942e-16 10.1744 -3.48737)
(1.05926e-15 13.3808 -7.27016)
(1.17724e-15 12.4378 -5.87573)
(1.72516e-15 13.5667 -5.15523)
(-2.88904e-15 17.0711 -10.4408)
(-2.99645e-15 16.0308 -8.54168)
(-3.4228e-15 17.7402 -7.623)
(-1.0568e-14 22.293 -14.9259)
(-9.37749e-15 21.0856 -11.6775)
(-8.93099e-15 24.2519 -10.723)
(-8.96095e-15 24.5658 -21.0776)
(-6.57651e-15 32.3081 -16.4843)
(-5.776e-15 24.6666 -20.7889)
(-9.39667e-15 30.3634 52.7643)
(-1.38141e-14 30.7691 77.614)
(-1.67702e-14 32.6653 89.3154)
(-1.95265e-14 35.1785 94.6108)
(-2.20625e-14 36.4845 96.9638)
(-2.42803e-14 39.6211 99.311)
(-2.28747e-14 36.2977 71.88)
(-2.76827e-14 73.6775 119.51)
(-2.90099e-14 73.8864 119.283)
(-3.05928e-14 74.6625 118.211)
(-3.22152e-14 74.9523 116.977)
(-3.37837e-14 75.1149 115.468)
(-3.5701e-14 75.1764 113.76)
(-3.78987e-14 75.1143 111.919)
(-4.0455e-14 75.0235 110.023)
(-4.30745e-14 74.7252 108.149)
(-4.69364e-14 74.6053 106.239)
(-4.73914e-14 73.9062 104.513)
(-6.00409e-14 73.9804 101.655)
(-8.51901e-14 71.9919 98.8266)
(-6.10608e-14 88.9264 113.35)
(-3.01094e-14 55.3922 82.4829)
(-3.05626e-14 47.1347 83.8272)
(-3.18261e-14 36.1157 83.1467)
(-2.89322e-14 25.1854 80.5909)
(-1.35511e-14 13.6428 40.312)
(-7.94175e-15 8.99625 26.7066)
(3.40845e-16 7.52701 12.3608)
(2.23249e-14 5.72851 -8.84702)
(2.348e-14 2.2486 -13.2278)
(1.47531e-14 4.42112 -14.2485)
(-5.62929e-15 2.30859 -16.1984)
(-3.66145e-15 -0.981547 3.38803)
(-9.40336e-16 -0.722511 16.6789)
(3.04039e-15 -5.04623 31.5912)
(1.15989e-14 -13.0882 75.9196)
(1.1672e-14 -26.7803 90.3029)
(1.1407e-14 -37.5237 94.5159)
(1.13148e-14 -48.3972 94.9931)
(3.19444e-14 -89.0843 134.387)
(5.84956e-14 -67.8541 122.121)
(4.19073e-14 -69.8742 128.235)
(4.15347e-14 -69.339 129.684)
(3.95012e-14 -69.9251 130.363)
(3.87083e-14 -69.6997 129.894)
(3.81321e-14 -69.6214 128.455)
(3.74714e-14 -69.2211 126.375)
(3.63956e-14 -68.756 124.041)
(3.51522e-14 -68.1443 121.704)
(3.38423e-14 -67.4194 119.389)
(3.29214e-14 -66.5506 117.071)
(3.20457e-14 -65.4591 114.666)
(3.12488e-14 -64.1837 111.784)
(1.66489e-14 -26.6635 59.1685)
(2.70921e-14 -29.4217 83.9024)
(2.48857e-14 -26.6841 80.3099)
(2.27728e-14 -26.1507 76.7101)
(2.02877e-14 -24.4663 71.7519)
(1.66131e-14 -22.8724 63.7424)
(8.61729e-15 -22.468 47.8104)
(-1.45325e-15 -17.6567 -9.93772)
(-2.32232e-15 -24.8821 -12.5228)
(-1.83956e-15 -16.6325 -17.2048)
(-1.64946e-15 -17.5642 -8.83617)
(-1.35657e-15 -14.708 -10.0063)
(-1.07478e-15 -15.5812 -12.36)
(2.02717e-16 -12.4362 -7.0744)
(1.18879e-16 -10.8681 -7.87562)
(2.03567e-16 -11.158 -9.75561)
(5.6059e-16 -8.38067 -4.91888)
(1.57514e-16 -7.46432 -5.65457)
(-3.92614e-16 -7.31154 -7.32824)
(-3.17959e-16 -5.15876 -3.81985)
(-2.61343e-16 -4.99441 -4.38002)
(-2.75867e-16 -3.91684 -4.64554)
(-4.16397e-16 -3.86009 -6.12993)
(-4.88201e-16 -2.05189 -2.72358)
(-4.47558e-16 -1.68657 -3.30776)
(-3.31643e-16 -1.18432 -4.92486)
(-1.50693e-16 0.369593 -2.07461)
(-5.77039e-15 -16.5094 43.159)
(-4.93698e-15 -20.1261 41.7853)
(-4.01132e-15 -9.24884 37.9268)
(-1.24219e-15 12.4751 27.7078)
(2.32721e-15 22.8147 24.9591)
(7.71454e-15 26.6126 26.8832)
(1.57783e-14 27.997 29.8506)
(2.58775e-14 23.4303 30.3391)
(3.43776e-14 0.451162 18.9515)
(3.49714e-14 -22.353 5.79887)
(3.28493e-14 -33.6338 0.890403)
(2.79603e-14 -39.789 -2.028)
(1.7276e-14 -35.1164 -4.399)
(6.00556e-15 -24.9325 -6.93463)
(4.10357e-16 -10.8738 -8.00517)
(-8.01425e-16 -3.96507 -7.24657)
(-4.00947e-16 -2.43066 -6.61462)
(-3.25704e-17 -12.2698 -6.53598)
(1.22521e-16 -6.19143 -7.02773)
(-5.58769e-15 -16.3635 43.7212)
(-4.75155e-15 -18.0648 42.5979)
(-3.01633e-15 -3.21382 35.8888)
(1.69117e-15 16.0069 28.0437)
(7.70719e-15 22.8525 30.0091)
(1.57278e-14 24.7014 34.5884)
(2.49199e-14 26.7216 39.013)
(3.31274e-14 26.4254 40.6195)
(3.75338e-14 10.1247 29.8002)
(3.59883e-14 -18.5043 4.34516)
(3.28533e-14 -32.5436 0.667322)
(2.79717e-14 -38.8067 -0.794188)
(1.7472e-14 -33.5911 -2.87878)
(6.4416e-15 -23.5958 -6.48485)
(7.91117e-16 -10.3976 -8.95745)
(-7.88109e-16 -4.21875 -9.16113)
(-5.6445e-16 -2.45839 -7.49482)
(-7.14153e-17 -12.0445 -6.54889)
(1.44708e-16 -7.23229 -7.49841)
(-5.33625e-15 -16.1978 43.5665)
(-4.44444e-15 -16.8898 43.3307)
(-1.42565e-15 -1.5862 36.5349)
(5.30235e-15 15.0022 32.8972)
(1.29508e-14 20.814 36.6635)
(2.14162e-14 22.8906 41.4764)
(2.89785e-14 25.5839 45.8054)
(3.4063e-14 27.3749 48.2519)
(3.63095e-14 17.3021 41.9504)
(3.64706e-14 -11.5294 10.6014)
(3.36259e-14 -29.6901 -2.1828)
(2.80363e-14 -38.2376 1.54148)
(1.74562e-14 -32.301 -0.11063)
(6.78172e-15 -22.2188 -5.23962)
(1.22259e-15 -9.68857 -9.82256)
(-6.94855e-16 -4.73296 -11.4752)
(-6.97431e-16 -3.40873 -9.57492)
(-1.22617e-16 -11.8628 -7.0072)
(8.80195e-17 -5.68337 -7.97927)
(-5.12084e-15 -16.4243 42.8048)
(-3.94464e-15 -15.7774 44.2448)
(1.07079e-15 0.836062 39.6737)
(9.95937e-15 15.1466 39.3638)
(1.83798e-14 19.3172 44.8764)
(2.53978e-14 20.9463 51.2436)
(2.95701e-14 24.0853 56.3977)
(3.12068e-14 27.9245 59.137)
(3.19933e-14 24.2497 56.2726)
(3.32351e-14 0.00823938 31.2907)
(3.38914e-14 -30.0796 -2.75668)
(2.86251e-14 -40.3341 2.48026)
(1.72381e-14 -30.6419 4.33583)
(6.69344e-15 -19.9393 -2.89333)
(1.38643e-15 -7.96556 -9.90164)
(-6.40353e-16 -4.75739 -13.1018)
(-8.0301e-16 -4.49868 -11.3625)
(-1.78639e-16 -13.3195 -6.90964)
(-6.08213e-17 -8.35691 -9.1088)
(-4.93767e-15 -16.9816 42.0563)
(-3.29809e-15 -15.7001 44.8894)
(4.12375e-15 1.08676 44.2314)
(1.43342e-14 12.94 47.8877)
(2.09194e-14 16.2648 56.329)
(2.30109e-14 18.2294 64.7365)
(2.13976e-14 22.4161 70.4228)
(1.99329e-14 27.6842 72.2497)
(2.24513e-14 27.7165 69.6446)
(2.70931e-14 11.1189 55.1073)
(2.8346e-14 -17.1579 29.7614)
(2.79904e-14 -40.4708 4.52073)
(1.69968e-14 -30.0167 10.7583)
(6.1262e-15 -16.4851 0.984416)
(1.56851e-15 -5.33026 -7.89211)
(-1.97975e-16 -4.38469 -12.3538)
(-7.3136e-16 -5.5906 -13.3176)
(-1.78757e-16 -11.9856 -7.81222)
(9.56681e-18 -0.750518 -9.66383)
(-4.43507e-15 -17.7263 42.5443)
(-2.8322e-15 -16.7231 45.4206)
(6.38452e-15 -0.316858 49.9536)
(1.56764e-14 9.89199 58.856)
(1.64001e-14 12.5214 70.4648)
(1.01374e-14 15.228 80.1769)
(1.75708e-15 21.1086 85.6849)
(-1.173e-15 28.4902 86.3385)
(6.36921e-15 31.1261 81.8989)
(1.97547e-14 18.0099 67.9649)
(2.50799e-14 -8.40662 51.8098)
(2.40427e-14 -34.3905 24.4799)
(1.54202e-14 -28.3648 16.57)
(6.08157e-15 -12.4169 8.1495)
(3.17389e-15 -2.2376 -0.24345)
(2.41541e-15 -2.89185 -4.70867)
(-2.51367e-16 -6.37909 -12.4338)
(-4.22432e-16 -17.4402 -7.05246)
(4.62244e-16 -11.805 -18.8017)
(-2.53907e-15 -18.2494 45.9108)
(-2.36289e-15 -18.6524 46.5895)
(6.29071e-15 -4.18632 55.693)
(1.03785e-14 4.78528 70.5234)
(1.66105e-15 7.7723 83.9001)
(-1.33298e-14 12.1266 91.8019)
(-2.52116e-14 20.01 94.5707)
(-2.6144e-14 29.3118 94.6076)
(-1.35888e-14 34.2747 93.3488)
(8.05092e-15 23.5087 85.1382)
(2.24199e-14 -2.92158 65.9797)
(1.88239e-14 -25.8331 41.7703)
(1.31359e-14 -23.7577 26.2029)
(7.71784e-15 -9.89001 20.3814)
(7.43335e-15 -0.125332 17.1534)
(8.04282e-15 0.555475 15.146)
(4.73035e-15 -3.47896 0.896146)
(1.89677e-16 -4.07193 -2.54925)
(-4.79727e-15 15.439 -43.414)
(5.90392e-16 -18.0075 53.4901)
(-2.8937e-15 -20.6179 49.702)
(2.4205e-15 -9.83023 60.0851)
(-2.30272e-15 -1.42194 77.4432)
(-2.02441e-14 4.0127 88.7292)
(-3.70675e-14 11.055 88.8703)
(-4.33763e-14 20.1054 85.3061)
(-4.01251e-14 29.1543 85.6378)
(-2.83638e-14 34.9122 91.7894)
(-5.04119e-15 29.3701 95.8708)
(1.75737e-14 7.72194 84.0566)
(1.81111e-14 -17.7642 58.8912)
(1.2658e-14 -19.3316 42.8291)
(1.13335e-14 -8.65124 39.5059)
(1.34364e-14 -0.234722 44.0968)
(1.56564e-14 2.01789 51.3178)
(1.6511e-14 -0.90099 53.4591)
(1.80885e-14 -10.581 58.7041)
(2.39487e-14 -45.2027 85.4307)
(7.06309e-15 -16.6656 66.6782)
(-2.04793e-15 -21.377 57.4273)
(-6.43009e-16 -14.9941 63.8834)
(-1.23172e-14 -6.4285 75.3388)
(-3.37616e-14 3.225 75.8981)
(-3.85575e-14 13.3406 64.2506)
(-3.36106e-14 21.1712 56.8829)
(-3.30938e-14 26.5094 62.6918)
(-3.23883e-14 30.079 79.5868)
(-1.46123e-14 27.2344 97.9035)
(1.3409e-14 12.3671 103.047)
(2.3095e-14 -9.24634 85.1171)
(1.79662e-14 -15.6105 70.1873)
(1.72296e-14 -10.2206 70.3578)
(1.85955e-14 -4.40006 80.3221)
(1.9656e-14 -2.65195 90.5771)
(2.20367e-14 -6.07473 98.8105)
(2.41336e-14 -13.8064 104.077)
(2.26663e-14 -22.4057 97.9854)
(2.59077e-14 -14.0924 87.4286)
(1.20186e-14 -19.6474 76.6284)
(1.45557e-15 -16.9159 75.1074)
(-1.62265e-14 -6.58259 70.5012)
(-2.27257e-14 8.34007 50.8411)
(-1.03291e-14 18.4499 34.1363)
(-6.45661e-15 20.5875 31.1604)
(-1.8286e-14 19.9328 44.0951)
(-3.15672e-14 20.8463 69.3326)
(-2.37747e-14 19.9779 95.8319)
(2.70062e-15 11.2724 113.858)
(2.24508e-14 -5.01191 112.522)
(1.65184e-14 -13.3153 102.967)
(1.21648e-14 -12.5115 101.15)
(8.54276e-15 -8.04192 104.255)
(9.37336e-15 -4.97148 105.755)
(8.79365e-15 -6.22243 103.628)
(9.27737e-15 -11.4708 89.3027)
(5.88448e-15 -16.209 50.964)
(3.1152e-14 -12.1289 111.219)
(1.87151e-14 -16.8062 102.45)
(-6.83329e-17 -12.4144 84.0399)
(-9.52918e-15 3.19559 54.4091)
(-1.77569e-16 17.5218 30.2029)
(9.10064e-15 21.1957 24.2659)
(8.79689e-15 17.5302 26.1258)
(-1.45214e-14 11.4058 39.8506)
(-3.18648e-14 9.74611 65.2206)
(-3.34578e-14 9.90905 90.8823)
(-2.16091e-14 5.57733 111.63)
(-8.18317e-15 -4.72082 119.545)
(-5.10252e-15 -11.0718 116.514)
(-8.25133e-15 -10.9787 113.439)
(-1.36607e-14 -6.63868 111.051)
(-1.76153e-14 -2.57278 108.603)
(-2.11781e-14 0.390508 103.413)
(-2.19963e-14 6.14275 87.0717)
(-1.37012e-14 16.7206 49.6239)
(3.71385e-15 -10.6016 118.767)
(-1.53799e-15 -8.80016 99.8674)
(-5.06005e-15 2.69892 63.4329)
(9.92496e-16 14.9122 34.5223)
(5.40532e-15 20.3718 27.4407)
(4.19157e-15 20.2195 27.7873)
(-1.7781e-15 14.2847 29.3275)
(-1.75637e-14 4.06422 41.2142)
(-3.29513e-14 0.603952 61.9056)
(-3.64416e-14 1.4917 81.1298)
(-3.34926e-14 -0.375401 97.6931)
(-2.90627e-14 -6.74646 106.687)
(-2.71305e-14 -10.6423 107.225)
(-2.94849e-14 -10.1336 105.469)
(-3.34907e-14 -6.18441 103.179)
(-3.75552e-14 -1.98039 102.755)
(-4.30349e-14 2.64326 105.303)
(-4.69044e-14 10.3439 105.614)
(-4.51902e-14 24.2075 97.3302)
(-1.91086e-14 -4.47405 99.4957)
(-7.01257e-15 5.11996 65.7548)
(2.66164e-15 13.8346 41.4074)
(5.45906e-15 17.3919 32.7459)
(4.46249e-15 20.4729 30.4857)
(3.03875e-15 20.1955 29.2404)
(-1.21778e-15 12.3332 28.2151)
(-1.72181e-14 -1.63553 35.5208)
(-3.05777e-14 -5.88947 49.6387)
(-3.49109e-14 -4.31967 62.9517)
(-3.49391e-14 -4.83027 74.7971)
(-3.37214e-14 -8.606 82.43)
(-3.1757e-14 -10.6226 82.9558)
(-3.00688e-14 -9.19637 77.1586)
(-2.87804e-14 -5.35272 68.2813)
(-2.90197e-14 -2.78924 59.1641)
(-3.13203e-14 -0.742337 50.9193)
(-3.60247e-14 7.15526 50.5104)
(-4.68865e-14 41.0777 69.8918)
(-1.63025e-14 3.33069 73.1612)
(2.24892e-15 13.8884 46.0713)
(5.22607e-15 16.7599 39.2288)
(4.64714e-15 18.9903 34.0874)
(3.80211e-15 21.7272 31.013)
(3.23658e-15 21.0158 28.9246)
(7.49761e-16 12.1314 26.0699)
(-1.17022e-14 -4.63607 26.3071)
(-2.36087e-14 -10.2739 34.7278)
(-2.90087e-14 -8.59909 43.9111)
(-3.03796e-14 -8.13996 51.7658)
(-3.01748e-14 -9.83954 56.6255)
(-2.79917e-14 -8.7475 56.7808)
(-2.30791e-14 -4.73733 48.3753)
(-1.72927e-14 0.704179 35.8273)
(-1.18933e-14 4.61204 21.5563)
(-6.86608e-15 5.73539 6.00514)
(-1.92951e-15 3.72971 -0.87541)
(-1.33284e-16 -8.75153 -25.6692)
(-7.66387e-15 7.61952 55.7532)
(4.81746e-15 18.0644 40.2332)
(5.20066e-15 18.7764 38.2136)
(4.87646e-15 20.4901 34.07)
(4.23686e-15 22.666 31.2865)
(3.49363e-15 22.0097 29.0087)
(2.01077e-15 13.6332 25.2841)
(-5.66552e-15 -5.09226 19.0113)
(-1.55942e-14 -12.9973 22.23)
(-2.19907e-14 -11.3726 29.2526)
(-2.48748e-14 -10.2811 35.1425)
(-2.53222e-14 -10.5532 38.1949)
(-2.25994e-14 -6.89016 36.0012)
(-1.59636e-14 -0.485987 25.924)
(-9.52608e-15 5.58526 15.0851)
(-4.84605e-15 9.0292 6.80065)
(-2.56147e-15 8.75022 -0.998998)
(-9.06685e-16 13.6956 -2.64457)
(1.33411e-15 6.3145 -22.2942)
(-2.14584e-15 10.1166 45.7451)
(5.40878e-15 20.2668 38.1733)
(5.52633e-15 19.7001 37.7712)
(5.23008e-15 21.5899 34.4401)
(4.49853e-15 23.7686 31.6701)
(3.6256e-15 23.28 29.081)
(2.63197e-15 16.0713 25.3517)
(-1.19379e-15 -3.50876 15.2217)
(-8.67493e-15 -14.5008 12.7683)
(-1.52865e-14 -13.6048 18.4677)
(-1.97367e-14 -11.5905 23.2613)
(-2.11082e-14 -10.2816 25.5852)
(-1.74606e-14 -4.14009 20.5394)
(-1.09264e-14 3.19019 11.1129)
(-5.66397e-15 8.29433 4.43817)
(-2.30063e-15 11.0709 1.67908)
(-1.20398e-15 9.85959 -2.89168)
(-3.33664e-16 14.2706 -3.527)
(1.03425e-15 4.8826 -13.7497)
(9.35707e-16 11.1715 40.0069)
(5.60981e-15 20.9009 37.8959)
(5.71945e-15 20.5029 37.7436)
(5.42174e-15 22.7876 34.6028)
(4.75019e-15 24.9027 31.8822)
(3.85103e-15 24.5196 29.2038)
(2.91945e-15 18.7007 25.8578)
(1.17486e-15 0.563602 15.6533)
(-3.67239e-15 -14.8222 6.43924)
(-9.44376e-15 -15.6585 10.0942)
(-1.48372e-14 -13.0129 14.0041)
(-1.71523e-14 -9.65128 15.2965)
(-1.30669e-14 -0.920431 9.22329)
(-6.9295e-15 5.91075 0.774261)
(-3.04906e-15 9.29537 -1.23672)
(-8.38711e-16 11.8833 -0.36917)
(-2.83119e-16 10.8614 -3.48759)
(-3.99507e-17 16.5353 -4.35428)
(-9.80148e-17 9.73451 -9.06738)
(2.47958e-15 11.2939 37.1677)
(5.52346e-15 20.8382 38.1394)
(5.72084e-15 21.2363 37.5715)
(5.54009e-15 23.8324 34.6748)
(4.99025e-15 25.9561 32.1824)
(4.09976e-15 25.6716 29.4318)
(3.10125e-15 21.0192 26.2726)
(2.03011e-15 5.99852 17.8464)
(-5.81813e-16 -12.4625 3.50642)
(-4.7338e-15 -16.2866 3.58871)
(-1.00824e-14 -13.5251 6.50017)
(-1.38585e-14 -8.46677 7.67322)
(-1.08832e-14 2.72631 2.52888)
(-3.7055e-15 7.77814 -5.09323)
(-6.84062e-16 8.9809 -3.95463)
(1.30262e-16 11.9126 -1.18263)
(6.69302e-17 11.7312 -3.94208)
(-7.60167e-17 16.546 -5.10442)
(-1.48472e-16 9.47121 -7.30167)
(3.09986e-15 11.0895 36.4393)
(5.15351e-15 20.6362 38.0803)
(5.62737e-15 21.9861 37.3188)
(5.62524e-15 24.7787 34.8389)
(5.19309e-15 26.8934 32.5131)
(4.33897e-15 26.6584 29.6935)
(3.28906e-15 22.6901 26.5847)
(2.34198e-15 10.3171 20.4374)
(1.00802e-15 -10.7698 4.64509)
(-1.38305e-15 -17.0313 -0.932916)
(-5.46488e-15 -14.8939 -0.00600068)
(-9.56945e-15 -8.4374 0.432538)
(-6.48157e-15 3.60485 -3.7803)
(-1.23923e-15 8.43453 -6.64979)
(7.47266e-16 7.99306 -4.06398)
(3.35785e-16 11.7668 -1.75547)
(-1.84684e-17 12.5192 -4.31771)
(-8.51432e-17 17.1793 -5.13631)
(-6.29539e-17 10.3942 -6.36813)
(3.20079e-15 10.5996 37.0496)
(4.75421e-15 20.4195 37.6286)
(5.54329e-15 22.7684 37.2063)
(5.67503e-15 26.0211 35.0386)
(5.33236e-15 28.4367 32.7153)
(4.52723e-15 28.5053 29.8368)
(3.46131e-15 25.1059 26.7431)
(2.50412e-15 15.9064 22.9643)
(1.75134e-15 -3.87887 11.8854)
(8.11237e-16 -13.0015 0.91626)
(-1.00727e-15 -13.5116 -1.80839)
(-3.16301e-15 -7.01128 -3.96629)
(-1.54445e-15 4.49726 -5.95816)
(4.77905e-16 7.75423 -6.86761)
(8.48237e-16 6.67542 -3.9813)
(2.31144e-16 11.9365 -2.33024)
(-2.57095e-17 13.4052 -4.63966)
(-7.98882e-17 17.4673 -5.15238)
(-8.2428e-17 9.22071 -6.13592)
(4.18388e-16 109.619 185.172)
(-1.85e-14 153.936 258.166)
(-1.80281e-14 156.752 256.319)
(-1.71837e-14 149.395 239.596)
(-1.75863e-14 140.025 219.415)
(-2.60391e-14 130.56 199.788)
(-2.43242e-14 121.813 182.906)
(-2.27614e-14 115.28 170.67)
(-2.27996e-14 109.2 159.367)
(-2.40733e-14 103.167 148.618)
(-2.56471e-14 97.1193 138.354)
(-2.71139e-14 91.1979 128.507)
(-2.98508e-14 85.2422 119.111)
(-3.27781e-14 79.3063 110.016)
(-3.58366e-14 73.1783 101.051)
(-3.98456e-14 66.6274 91.9083)
(-4.58074e-14 59.3497 81.8956)
(-4.97337e-14 49.7016 69.4823)
(-1.23969e-13 35.7741 49.4611)
(-2.20444e-13 19.3812 33.5105)
(-5.76758e-16 113.505 192.016)
(-1.81903e-14 142.13 245.069)
(-1.46994e-14 139.885 239.232)
(-1.43913e-14 130.403 224.683)
(-1.71453e-14 119.964 205.581)
(-2.69418e-14 109.669 188.349)
(-1.99749e-14 102.523 175.289)
(-1.95637e-14 96.0523 163.664)
(-2.02764e-14 89.9725 152.759)
(-2.18671e-14 84.1925 142.199)
(-2.40759e-14 78.4801 132.07)
(-2.58178e-14 73.0307 122.218)
(-2.88539e-14 67.5056 112.577)
(-3.16143e-14 61.9504 102.846)
(-3.41701e-14 55.9606 92.7203)
(-3.98348e-14 49.2804 81.5555)
(-4.63682e-14 41.0538 68.096)
(-6.27717e-14 29.0161 48.5276)
(-2.09695e-13 11.0414 18.9795)
(-2.73871e-13 6.43552 10.3619)
(-2.18843e-17 115.173 197.869)
(-7.18999e-15 145.014 252.612)
(-4.33533e-15 145.597 249.066)
(-5.1072e-15 136.36 234.235)
(-5.91808e-15 126.576 215.093)
(-1.39843e-14 116.37 197.328)
(-9.13231e-15 108.506 182.67)
(-9.07938e-15 101.634 170.422)
(-8.72084e-15 95.3398 159.053)
(-9.42247e-15 89.19 148.062)
(-1.07155e-14 83.0927 137.312)
(-1.28407e-14 77.0201 126.72)
(-1.32921e-14 70.8289 116.181)
(-1.45101e-14 64.4752 105.503)
(-1.64966e-14 57.6882 94.4078)
(-2.04778e-14 50.3406 82.4046)
(-2.30852e-14 41.6949 68.5431)
(-3.17353e-14 31.4204 51.7264)
(-7.53939e-14 19.3872 31.2136)
(-1.34089e-13 11.9409 19.0099)
(6.33396e-17 111.939 190.973)
(1.56926e-15 148.39 258.202)
(1.25937e-15 148.333 252.347)
(1.17745e-15 137.812 235.259)
(1.58215e-15 127.541 215.559)
(-8.72218e-15 117.444 197.653)
(-7.89959e-15 109.525 182.891)
(-8.84773e-15 102.681 170.232)
(-8.71746e-15 96.2609 158.487)
(-9.21495e-15 89.9045 146.959)
(-1.06171e-14 83.4087 135.499)
(-1.26797e-14 76.788 124.026)
(-1.34042e-14 69.9361 112.525)
(-1.55278e-14 62.889 100.85)
(-1.58652e-14 55.385 88.8449)
(-2.07612e-14 47.5004 76.0381)
(-2.30572e-14 38.3673 61.8578)
(-3.10791e-14 28.6031 45.3881)
(-5.71342e-14 14.3771 23.2927)
(-1.64849e-13 3.19921 0.439194)
(-2.47425e-17 114.678 193.83)
(-3.55571e-16 157.95 270.758)
(-3.08849e-16 155.494 261.533)
(-2.92109e-16 144.329 241.528)
(-4.00965e-16 133.956 221.877)
(1.82317e-15 124.882 204.253)
(1.98171e-15 117.288 189.348)
(2.0939e-15 110.681 175.905)
(2.05763e-15 104.155 163.084)
(2.20129e-15 97.4274 150.2)
(2.45517e-15 90.2996 137.165)
(2.85123e-15 82.8295 124.022)
(3.09386e-15 75.0151 110.875)
(3.40304e-15 66.9423 97.694)
(3.85359e-15 58.4118 84.4039)
(4.67178e-15 49.5347 70.609)
(5.51227e-15 39.4804 55.9003)
(6.86386e-15 28.776 38.9498)
(1.81307e-14 13.3578 17.5576)
(2.13062e-14 2.38148 -4.82979)
(6.54455e-18 126.283 212.53)
(7.63301e-17 170.905 286.88)
(7.09105e-17 163.136 271.811)
(6.8298e-17 152.22 249.814)
(1.00443e-16 142.294 231.386)
(-3.5535e-16 135.077 215.086)
(-4.68666e-16 128.475 200.837)
(-4.62687e-16 122.353 186.517)
(-4.67114e-16 115.454 171.765)
(-5.08898e-16 107.831 156.216)
(-5.54692e-16 99.4075 140.177)
(-6.1144e-16 90.3995 123.886)
(-6.7793e-16 80.8546 107.588)
(-7.5939e-16 70.8882 91.2862)
(-8.68109e-16 60.222 74.947)
(-1.0049e-15 49.0004 58.0389)
(-1.21401e-15 36.0285 40.2459)
(-1.36757e-15 21.9878 18.6863)
(-4.58434e-15 -0.147787 -7.76918)
(2.28559e-14 -11.0063 -37.1334)
(-1.51141e-18 146.596 251.308)
(-1.62652e-17 180.919 300.955)
(-1.64216e-17 166.388 281.018)
(-1.57852e-17 157.955 261.049)
(-2.38412e-17 149.171 246.479)
(6.71738e-17 144.592 233.379)
(1.06192e-16 138.86 220.976)
(1.04864e-16 132.696 205.698)
(1.06521e-16 124.13 188.253)
(1.17016e-16 114.442 168.996)
(1.27672e-16 103.602 149.084)
(1.37335e-16 92.1437 128.756)
(1.50794e-16 79.8806 108.239)
(1.70867e-16 66.862 87.4004)
(1.91718e-16 52.6977 66.2696)
(2.24523e-16 37.5676 44.2157)
(3.04775e-16 20.6135 22.067)
(4.50712e-16 3.95593 -4.27231)
(-1.94118e-15 -20.9407 -31.3882)
(8.85363e-15 -26.0584 -66.4026)
(4.00149e-19 159.325 281.493)
(3.78433e-18 174.09 295.005)
(3.97926e-18 157.309 278.474)
(3.84487e-18 151.45 263.886)
(5.51223e-18 142.292 253.798)
(-1.58217e-17 138.124 244.054)
(-2.5095e-17 130.024 232.731)
(-2.4478e-17 120.306 214.882)
(-2.53957e-17 106.564 193.465)
(-2.90459e-17 92.4343 169.981)
(-3.49521e-17 77.2964 146.361)
(-4.07418e-17 61.9516 121.873)
(-3.83587e-17 45.5147 96.3256)
(-4.62712e-17 28.2358 69.3892)
(-1.31833e-16 10.1374 41.0816)
(-1.61694e-16 -8.57948 11.814)
(2.06058e-16 -22.8447 -10.9765)
(3.99818e-16 -31.5318 -28.658)
(-3.89054e-16 -47.0589 -53.6484)
(-2.95124e-16 -31.3413 -53.3985)
(-1.42131e-19 150.744 271.293)
(-9.76222e-19 156.036 271.997)
(-1.05909e-18 141.95 260.097)
(-1.15225e-18 134.303 246.674)
(-5.67453e-19 123.965 237.789)
(4.61839e-18 117.111 228.602)
(6.35541e-18 105.579 216.074)
(6.68735e-18 91.6323 196.389)
(7.58383e-18 74.5275 173.429)
(6.04052e-18 57.6307 149.422)
(-1.50324e-18 40.3466 125.675)
(-3.2781e-18 23.0419 101.31)
(3.14593e-17 5.37467 76.4133)
(8.08262e-17 -11.4546 51.8745)
(1.87961e-17 -25.6205 29.9002)
(-1.83101e-16 -34.6383 12.6818)
(-3.18329e-16 -35.266 3.96337)
(-3.3459e-16 -21.9604 11.3606)
(-4.67535e-16 5.18876 37.3364)
(-4.84228e-16 22.917 55.5175)
(5.51121e-20 133.591 239.52)
(2.63124e-19 145.661 254.547)
(3.03157e-19 129.287 235.874)
(3.08062e-19 119.171 217.151)
(-1.55474e-19 107.513 207.043)
(-1.44933e-18 99.5098 195.486)
(-1.75463e-18 86.8549 182.72)
(-1.55027e-18 73.5026 164.094)
(-1.65491e-18 57.4921 142.837)
(-5.75933e-18 41.9935 119.767)
(-1.91779e-17 26.4178 96.6476)
(-2.66509e-17 12.1115 74.069)
(4.11565e-17 0.198881 54.482)
(2.70984e-16 -6.44553 41.8222)
(6.15105e-16 -4.10016 42.1109)
(8.27408e-16 10.6018 60.6179)
(7.047e-16 36.5907 95.578)
(3.47829e-16 65.7708 133.8)
(5.50665e-17 85.4299 152.291)
(2.24537e-18 63.5175 119.457)
(-1.75568e-20 127.333 226.101)
(-6.67429e-20 149.914 253.765)
(-7.87985e-20 130.617 230.276)
(-8.10875e-20 122.237 204.833)
(4.86917e-20 109.476 192.427)
(3.8646e-19 103.873 175.909)
(4.79622e-19 92.9817 163.401)
(5.48221e-19 85.6651 147.967)
(7.02213e-19 76.0055 133.316)
(5.4052e-19 68.3114 117.365)
(-4.18517e-19 60.9377 102.574)
(-5.49069e-19 55.7861 89.3514)
(3.91693e-18 52.7354 79.3168)
(1.44326e-17 52.955 74.2828)
(2.19285e-17 57.3032 76.3046)
(1.65679e-18 65.0579 86.5779)
(-6.23131e-17 74.9927 102.368)
(-1.36784e-16 80.6345 118.101)
(-1.48234e-16 78.7484 120.482)
(-5.55354e-17 55.7883 95.762)
(4.61287e-21 128.9 229.834)
(1.65766e-20 159.095 264.77)
(2.00985e-20 135.863 238.842)
(2.15561e-20 129.955 213.08)
(-6.1598e-21 117.471 201.146)
(-8.66747e-20 113.702 184.851)
(-1.20334e-19 104.699 172.691)
(-1.35534e-19 99.6056 158.99)
(-1.7843e-19 93.282 147.426)
(-1.98727e-19 88.5329 136.024)
(4.96634e-20 83.8966 125.239)
(6.45548e-19 79.6694 114.506)
(7.97028e-19 75.4949 103.707)
(-1.09697e-18 71.272 93.196)
(-6.79488e-18 67.3043 84.0593)
(-1.73365e-17 64.0189 78.0404)
(-3.06465e-17 61.3304 75.9705)
(-3.77478e-17 58.2066 75.8341)
(-2.25809e-17 49.8781 71.1662)
(1.43566e-17 29.5385 42.9251)
(-1.10629e-21 134.028 239.754)
(-4.07718e-21 164.843 270.503)
(-5.03355e-21 137.65 243.8)
(-5.6388e-21 134.786 219.062)
(-2.66938e-22 121.397 208.266)
(1.84818e-20 118.584 192.027)
(2.92037e-20 109.374 180.308)
(3.29985e-20 104.205 166.356)
(4.0059e-20 97.2143 154.109)
(5.08251e-20 91.3684 141.738)
(2.51127e-20 85.3815 130.146)
(-9.38101e-20 79.7349 119.003)
(-2.32563e-19 74.1853 108.349)
(-8.44535e-20 68.7684 97.9714)
(8.10557e-19 63.0659 87.719)
(3.04736e-18 57.1179 77.1605)
(7.54021e-18 49.6402 66.2782)
(1.54529e-17 41.3397 53.7655)
(2.46734e-17 26.8466 37.2858)
(3.20722e-17 7.61772 2.21684)
(2.57617e-22 141.86 257.241)
(9.99074e-22 168.365 271.932)
(1.24444e-21 138.553 249.324)
(1.43596e-21 140.34 225.814)
(4.21561e-22 124.754 216.29)
(-3.83255e-21 123.549 199.131)
(-6.90053e-21 113.216 187.914)
(-8.09516e-21 108.857 173.701)
(-9.1426e-21 101.639 161.751)
(-1.12794e-20 96.1379 149.065)
(-9.86299e-21 90.0577 136.924)
(6.18248e-21 84.1795 124.524)
(3.5797e-20 77.8633 111.949)
(4.35781e-20 71.1095 98.8729)
(-3.99979e-20 63.2244 85.2521)
(-3.30781e-19 54.3089 70.3223)
(-1.0615e-18 42.7737 53.8663)
(-2.71967e-18 30.3522 34.1766)
(-7.75896e-18 9.19243 8.91515)
(6.37718e-19 -6.37841 -27.7416)
(-5.97514e-23 148.869 275.938)
(-2.43612e-22 169.623 270.539)
(-3.03466e-22 139.407 255.959)
(-3.55854e-22 145.498 233.559)
(-1.70897e-22 127.681 225.392)
(7.65041e-22 128.42 208.062)
(1.57213e-21 117.231 197.859)
(1.93738e-21 114.177 184.059)
(2.08984e-21 107.168 173.136)
(2.40179e-21 102.785 161.262)
(2.65098e-21 97.4138 149.899)
(1.40672e-21 92.1219 137.415)
(-2.62126e-21 85.4433 123.319)
(-8.23916e-21 76.8781 106.39)
(-1.04361e-20 65.2099 86.4935)
(4.69686e-21 51.3705 63.893)
(8.6559e-20 34.5358 40.3741)
(1.86832e-19 18.3442 14.8838)
(5.92928e-19 -8.43419 -14.3747)
(-8.39825e-18 -19.7756 -52.0088)
(1.4495e-23 150.484 286.096)
(5.98771e-23 166.68 265.187)
(7.36002e-23 137.387 258.728)
(8.65874e-23 145.179 237.155)
(4.98198e-23 125.736 230.234)
(-1.68588e-22 127.081 213.697)
(-3.67061e-22 115.066 204.888)
(-4.70414e-22 112.472 192.341)
(-5.37028e-22 105.09 183.074)
(-6.17893e-22 101.011 172.645)
(-4.50726e-22 95.149 162.417)
(6.1036e-22 88.8038 149.554)
(1.50976e-21 79.0747 132.163)
(-5.04435e-21 64.6895 107.342)
(-2.43762e-20 45.2196 76.1546)
(-1.06991e-20 25.1005 44.1706)
(1.2599e-19 3.74045 14.1732)
(2.00214e-19 -8.43894 -15.0815)
(7.51961e-19 -31.7668 -38.0427)
(-8.65613e-18 -31.604 -70.1885)
(-3.62196e-24 143.901 279.568)
(-1.50189e-23 160.572 255.782)
(-1.83245e-23 130.671 251.457)
(-2.14596e-23 137.207 230.805)
(-1.05895e-23 118.758 223.65)
(4.50912e-23 117.53 208.756)
(9.37278e-23 106.592 199.748)
(9.36595e-23 102.044 188.546)
(3.96453e-23 94.6689 179.609)
(1.15048e-22 89.1803 169.981)
(9.42222e-22 82.1424 159.674)
(2.59004e-21 73.5312 145.561)
(-9.82698e-22 60.4396 124.272)
(-2.69136e-20 41.9966 93.3035)
(-5.86076e-20 21.802 58.8079)
(6.64263e-20 6.91256 32.6729)
(4.76957e-19 -5.50115 9.54407)
(6.17242e-19 -22.4536 -21.1426)
(-5.61858e-19 -33.6253 -39.7403)
(-3.15443e-18 -21.4482 -28.7632)
(1.086e-24 131.704 269.14)
(3.69709e-24 155.06 243.845)
(4.57444e-24 119.468 241.678)
(5.79656e-24 126.28 221.779)
(1.32825e-24 108.03 214.507)
(-1.2565e-23 104.869 200.861)
(-2.6481e-23 94.6526 191.458)
(-5.2636e-23 88.7878 180.779)
(-9.38978e-23 81.5376 171.504)
(2.57047e-23 75.3578 161.946)
(7.72189e-22 68.49 151.785)
(1.66304e-21 60.6701 139.112)
(-2.39699e-21 50.8679 122.137)
(-2.01499e-20 39.5177 100.368)
(-4.05185e-20 28.6725 76.4478)
(8.31958e-21 20.075 54.259)
(2.43701e-19 12.7532 34.0998)
(6.3756e-19 5.31391 12.1426)
(6.65633e-19 -3.74024 -11.5881)
(8.13994e-19 5.80253 16.7255)
(-2.46606e-25 107.854 253.091)
(-1.18065e-24 147.681 223.531)
(-1.74881e-24 107.075 226.456)
(-1.17034e-24 113.255 211.018)
(2.05084e-24 97.1171 205.191)
(6.291e-24 92.3098 195.387)
(7.57848e-24 83.2593 187.751)
(3.71497e-24 76.9117 179.536)
(-4.70236e-24 70.1826 171.932)
(-3.29982e-24 64.3488 164.366)
(5.93158e-23 58.7806 156.926)
(2.76053e-22 53.732 149.358)
(5.31063e-22 49.1817 141.463)
(-4.3455e-22 45.181 132.681)
(-5.64999e-21 41.5072 122.127)
(-1.54943e-20 37.5809 108.784)
(-1.37065e-20 32.0244 91.2305)
(4.62238e-20 23.523 66.0314)
(2.06757e-19 11.2673 28.8468)
(3.49635e-19 -2.84792 -11.6433)
(1.35021e-25 35.8019 158.051)
(2.86108e-25 78.5358 130.489)
(9.79056e-26 52.8366 138.531)
(-4.60418e-25 52.8509 134.337)
(-1.12426e-24 44.4843 134.214)
(-1.12044e-24 40.2566 132.45)
(4.33984e-25 35.4071 131.059)
(2.42368e-24 31.6869 129.338)
(-3.58206e-24 28.4254 127.573)
(-3.61084e-23 25.8737 125.724)
(-1.01982e-22 23.9268 123.822)
(-1.29676e-22 22.58 121.784)
(1.06548e-22 21.7572 119.485)
(9.22423e-22 21.4334 116.824)
(2.30367e-21 21.7955 113.719)
(3.17896e-21 22.9187 110.261)
(1.27144e-21 24.4886 106.633)
(-4.83344e-21 28.5897 100.534)
(-1.11688e-20 31.5678 88.3376)
(-7.70674e-21 7.00748 65.0738)
(-5.88993e-26 -35.8035 158.056)
(6.38029e-26 -78.5378 130.492)
(2.15835e-25 -52.8379 138.533)
(3.96589e-25 -52.8522 134.338)
(5.8898e-25 -44.4855 134.214)
(7.42385e-25 -40.2579 132.449)
(7.20313e-25 -35.4081 131.056)
(3.54409e-25 -31.6874 129.333)
(-2.73735e-25 -28.4255 127.566)
(-4.54953e-25 -25.8747 125.714)
(1.36265e-24 -23.9314 123.813)
(7.55918e-24 -22.591 121.781)
(2.12526e-23 -21.7755 119.488)
(4.57275e-23 -21.4569 116.829)
(8.07568e-23 -21.8202 113.72)
(1.11344e-22 -22.9414 110.252)
(9.59918e-23 -24.5077 106.615)
(-8.64622e-24 -28.6024 100.518)
(-1.54543e-22 -31.5712 88.3393)
(-1.40224e-22 -7.00543 65.0887)
(2.78928e-25 -107.848 253.075)
(4.02907e-26 -147.675 223.515)
(-2.21809e-25 -107.07 226.439)
(-5.76841e-25 -113.252 211.002)
(-1.10422e-24 -97.1165 205.175)
(-1.86974e-24 -92.3108 195.371)
(-3.07735e-24 -83.2614 187.734)
(-4.72135e-24 -76.913 179.514)
(-5.85403e-24 -70.1819 171.903)
(-4.87174e-24 -64.3448 164.327)
(-2.74511e-24 -58.7725 156.877)
(-5.68257e-24 -53.7187 149.297)
(-1.87293e-23 -49.1666 141.391)
(-4.18744e-23 -45.1747 132.605)
(-1.03228e-22 -41.5264 122.055)
(-2.64289e-22 -37.6433 108.742)
(-3.80123e-22 -32.1443 91.2705)
(3.77528e-22 -23.6992 66.2116)
(3.31843e-21 -11.4613 29.1175)
(6.65579e-21 2.81712 -11.6994)
(-1.11656e-24 -131.705 269.145)
(3.33729e-25 -155.063 243.835)
(1.91131e-24 -119.467 241.672)
(3.46969e-24 -126.282 221.767)
(5.29253e-24 -108.03 214.495)
(7.60796e-24 -104.871 200.848)
(1.06068e-23 -94.6518 191.443)
(1.50333e-23 -88.7855 180.758)
(2.22275e-23 -81.5336 171.478)
(3.27372e-23 -75.3562 161.92)
(4.81084e-23 -68.4905 151.764)
(6.31698e-23 -60.6605 139.08)
(-1.73983e-23 -50.8128 122.038)
(-5.0687e-22 -39.3818 100.133)
(-1.60411e-21 -28.4849 76.1021)
(-2.19774e-21 -19.963 54.0059)
(9.8798e-22 -12.853 34.1857)
(1.18786e-20 -5.65185 12.6303)
(3.03393e-20 3.31305 -10.9257)
(3.65778e-20 -6.22976 17.1932)
(4.83843e-24 -143.881 279.494)
(-1.74876e-25 -160.525 255.711)
(-6.07557e-24 -130.634 251.386)
(-1.24923e-23 -137.176 230.751)
(-2.03834e-23 -118.736 223.6)
(-3.04795e-23 -117.512 208.708)
(-4.28558e-23 -106.577 199.693)